version 2
run Iteration-2-20200521-08:30:09-44232
attr configname Iteration
attr datetime 20200521-08:30:09
attr experiment Iteration
attr inifile omnetpp.ini
attr iterationvars "$i=3, $0=10-3"
attr iterationvarsf i=3,10-3-
attr measurement "$i=3, $0=10-3"
attr network Network
attr processid 44232
attr repetition 0
attr replication #0
attr resultdir results
attr runnumber 2
attr seedset 2
itervar i 3
param **.resourcePool.amount 3
param **.resourcePool1.amount 10-3
param **.source.interArrivalTime uniform(5s,15s)
param **.delay.delay uniform(10s,70s)
param **.delay1.delay uniform(20s,40s)
param **.allocate.resourceModuleName "\"Network.resourcePool\""
param **.allocate1.resourceModuleName "\"Network.resourcePool1\""
param **.deallocate.resourceModuleName "\"Network.resourcePool\""
param **.deallocate1.resourceModuleName "\"Network.resourcePool1\""

vector 0 Network.allocate queueLength:vector ETV
attr interpolationmode sample-hold
attr title "queue length, vector"
vector 1 Network.allocate1 queueLength:vector ETV
attr interpolationmode sample-hold
attr title "queue length, vector"
vector 2 Network.sinkStat lifeTime:vector ETV
attr interpolationmode none
attr title "lifetime of arrived jobs, vector"
attr unit s
0	0	0	0
0	18	49.083080424463	1
0	20	57.386428627653	2
0	22	59.190518397372	1
0	30	63.93069538288	2
0	32	69.111588585657	1
0	37	69.611124249642	0
0	42	75.123405086344	1
0	44	81.469436560292	0
0	65	98.281042343007	1
0	67	104.525578932372	0
0	72	108.266654019245	1
0	74	108.721679139418	0
0	79	115.1110526477	1
0	87	122.696033462418	2
0	89	128.737466551829	1
0	94	136.2357863714	2
0	102	145.308864696418	3
0	104	145.340266001877	2
0	112	158.774479608984	3
0	114	161.90693299519	2
0	119	165.959343428258	1
0	127	171.509905538987	0
0	132	173.470803685488	1
0	134	179.436112900732	2
0	136	179.876533646602	1
0	141	186.253383273726	2
0	152	197.220836353955	3
0	154	197.506131951231	2
0	159	202.221698325594	1
0	164	207.197245408315	0
0	169	207.878487657291	1
0	174	216.376750511118	2
0	176	218.638439404313	1
0	181	221.066852139774	0
0	189	223.054983655457	1
0	191	230.415617784019	0
0	196	234.459050919395	1
0	204	243.171445757616	0
0	212	247.389948349446	1
0	217	256.258874854539	2
0	219	256.705688510556	1
0	227	267.389171791729	2
0	232	278.189213620499	3
0	234	279.671588710043	2
0	239	283.485648774076	1
0	244	284.384061612655	2
0	249	299.029572436121	3
0	251	299.409504903014	2
0	259	309.12483123364	3
0	261	314.323935669381	2
0	269	323.020031824709	3
0	274	331.173006636092	4
0	276	335.530789385084	3
0	281	339.410006741527	2
0	289	341.844447911718	3
0	291	350.38120164536	4
0	293	361.054779647384	3
0	298	363.146793525667	4
0	306	370.888526060154	5
0	308	383.919913184363	4
0	313	385.425948284102	5
0	318	397.96052384423	4
0	323	398.567332453096	5
0	325	399.125329141971	4
0	330	407.230756410865	5
0	332	412.886219092178	4
0	340	417.382147628816	5
0	342	422.654171290344	6
0	344	435.120485420341	7
0	355	441.811936518643	6
0	360	442.592257789804	7
0	362	447.262721981386	6
0	367	456.475295254497	7
0	369	458.49840724608	6
0	377	471.181098402014	7
0	379	477.704202716704	6
0	384	483.20151877124	7
0	392	495.851117400454	8
0	394	498.679142242764	7
0	399	505.661334951875	8
0	404	513.591567275581	9
0	406	516.893842609132	8
0	411	518.832668985707	7
0	416	522.85179254599	8
0	418	523.813229824882	7
0	423	528.308582196479	8
0	428	540.42075460544	9
0	433	549.83430378372	10
0	435	550.23012580583	9
0	443	558.337855304124	8
0	448	560.008611395025	9
0	453	567.606058910025	10
0	455	578.342483893504	11
0	457	587.211382733659	12
0	459	587.75033431826	11
0	470	589.770943473559	10
0	475	590.470152150375	9
0	480	596.150715646801	10
0	482	601.280889026822	11
0	484	609.838425265626	12
0	489	622.812474700623	13
0	491	623.222786148545	12
0	502	629.941807121505	13
0	504	640.768656011206	14
0	506	643.975767127704	13
0	511	647.671348315196	12
0	516	649.38611421967	11
0	524	654.551658898127	12
0	526	655.508823839482	11
0	531	664.522396849935	12
0	539	677.786076907069	13
0	541	682.637519862038	12
0	552	686.294795928989	13
0	554	697.4034696375	12
0	559	697.603222490289	13
0	561	703.730984646828	14
0	563	712.547914031894	15
0	568	717.342306303327	14
0	573	720.377358149272	13
0	578	720.68049926078	14
0	583	735.258955978789	15
0	588	746.834079816472	16
0	593	759.868601108901	17
0	595	765.778111086691	16
0	600	767.014958588406	17
0	602	769.198211699259	16
0	607	780.806978892069	17
0	609	785.089880840388	16
0	614	789.541268933097	15
0	619	792.421792137902	16
0	627	807.104697860777	17
0	632	817.828727483284	16
0	637	819.884779439307	17
0	642	829.653213501441	18
0	644	831.469935381318	17
0	652	842.260215592106	16
0	657	843.342379801905	17
0	659	849.408105139153	18
0	661	859.841557468751	19
0	663	862.325939743314	18
0	671	866.738237438256	17
0	676	868.527632884213	18
0	681	879.448478613046	19
0	683	885.576214760076	18
0	691	888.199013944251	17
0	696	892.430684498974	18
0	701	906.569839266592	19
0	703	914.025725524408	18
0	708	916.350489512551	17
0	716	920.861238273789	18
0	721	931.84575588675	17
0	726	931.945659921036	18
0	728	944.246429989578	17
0	733	944.273884797	18
0	735	949.209853128997	17
0	740	951.041006401644	18
0	748	958.761980112176	17
0	753	961.405543382277	18
0	758	971.884621165225	19
0	760	980.857161087913	20
0	771	991.660220886113	19
0	776	992.852367314042	20
0	778	998.117950169835	19
0	783	1007.214847747234	20
0	785	1009.479686005508	19
0	790	1013.320679205933	20
0	795	1018.306573799344	19
0	800	1019.315578809473	18
0	805	1020.448352915698	19
0	810	1028.400075973475	20
0	812	1028.921576275023	19
0	820	1035.15123986406	20
0	825	1041.104120360685	21
0	830	1050.158768922555	20
0	835	1054.90402387222	21
0	840	1062.053267681037	22
0	842	1067.077162403147	21
0	847	1070.61702362029	20
0	852	1072.351479439528	21
0	854	1077.184117285068	20
0	859	1082.846447627523	21
0	864	1090.600826272273	22
0	872	1094.213386343326	21
0	877	1105.485923334488	22
0	879	1108.901615126525	21
0	884	1112.92600775836	20
0	895	1115.540039686018	21
0	897	1122.154705354476	22
0	899	1129.347605083601	23
0	901	1132.828710132745	22
0	912	1139.366634555626	21
0	917	1143.049064015502	22
0	919	1148.563945917411	23
0	924	1160.094151012598	24
0	926	1161.52469339082	23
0	931	1171.326874343211	24
0	936	1176.639349956529	25
0	941	1189.767169472759	26
0	943	1192.587515998165	25
0	948	1193.019769212698	24
0	953	1197.062909752128	25
1	0	0	0
2	28	59.870134918019	50.510185891762
2	57	93.16777218366	76.957002342678
2	60	94.947669778486	64.421491301619
2	63	95.104682131206	55.225279722363
2	82	116.891463024077	59.505034396424
2	85	117.833971001674	68.750890577211
2	97	136.261518511457	49.810736118816
2	100	144.428382089829	80.497686706949
2	110	158.622203359846	83.498798273502
2	125	166.933175420855	68.652133077848
2	144	187.847300192808	79.580646173563
2	147	191.716719826218	69.0206863638
2	150	193.83377199294	78.72271934524
2	172	209.76232900517	64.453464308752
2	187	221.942835294175	48.472031608687
2	199	237.571521855426	101.33573548403
2	202	238.743406811263	79.968927202279
2	210	245.987866783981	59.734483510255
2	215	250.440323788206	71.004210887474
2	225	260.077014418784	62.856178064829
2	230	276.432681668084	60.055931156966
2	247	296.5227284492	88.644240791909
2	257	302.642884317319	79.587900661862
2	267	320.531269435305	86.07221851591
2	272	323.754903299268	67.496028444729
2	287	341.156208796892	93.766260447446
2	301	364.081708670128	96.692536878399
2	304	368.144951986614	89.955738366115
2	316	391.766863178928	92.737290742807
2	338	414.804076293949	130.42001468129
2	347	436.142339182552	113.12230735784
2	350	436.922332311514	127.79750107787
2	353	437.306182181927	95.461734270209
2	375	463.154823884834	131.98181724874
2	387	486.086588038596	122.93979451293
2	390	494.503574257252	144.12237261189
2	402	511.835042757447	140.94651669729
2	426	537.885416841601	139.3180843885
2	431	543.351326950359	157.92537866626
2	441	554.071268963163	136.68912133435
2	451	563.4762986633	156.24554225244
2	465	587.919557790739	152.7990723704
2	468	589.410532221662	166.75636093132
2	487	609.881831894163	167.28957410436
2	497	625.040122198408	168.56482694391
2	500	626.281269288155	155.10017088614
2	522	650.463334282395	144.80199933052
2	534	671.24228495406	175.39116755361
2	537	677.735486656891	194.53396788565
2	547	683.806940505747	160.95514795976
2	550	684.73587939283	171.14431211725
2	566	713.657077958343	173.2363233529
2	581	724.241701744029	195.93311954755
2	586	738.178260440473	178.16964904545
2	591	755.145353244152	205.31104946043
2	622	794.113179824779	226.50712091475
2	625	801.048138963525	213.83675622987
2	630	808.49942348199	230.15693958849
2	640	827.174313513095	231.02359786629
2	650	840.507811720018	239.2269226932
2	669	866.445492946076	243.63301824545
2	679	878.23192869546	268.39350342983
2	689	886.642067690846	256.70026056934
2	699	902.88246025564	262.11380424443
2	714	916.667004229966	252.14460738003
2	719	926.101928718855	271.55026982073
2	743	953.578393340578	255.97517085029
2	746	954.704863948281	268.41006801929
2	756	968.37075242074	290.58467551367
2	763	981.035000246485	277.30401559966
2	766	982.173907516988	261.49340825621
2	769	985.188351783435	272.64043775154
2	793	1016.576444108503	281.31748812971
2	808	1027.392802329268	267.52420122037
2	818	1034.960871145596	288.12679132912
2	823	1038.309045482891	271.29408689449
2	828	1041.173504127655	260.36652523559
2	838	1059.218759618232	252.11406175746
2	862	1085.85460738046	256.20139387902
2	867	1091.144706544002	298.7229144061
2	870	1092.553919793572	272.66914035426
2	890	1114.08637969056	270.74399988865
2	893	1115.190748071763	265.78264293261
2	907	1135.603508411442	275.76195094269
2	910	1136.159916415345	256.7114378023
2	922	1157.176758584102	264.74607408513
2	934	1174.201735442038	305.67410255782
2	939	1187.250078425277	280.68023915868

