version 2
run Iteration-0-20200521-08:30:04-66432
attr configname Iteration
attr datetime 20200521-08:30:04
attr experiment Iteration
attr inifile omnetpp.ini
attr iterationvars "$i=1, $0=10-1"
attr iterationvarsf i=1,10-1-
attr measurement "$i=1, $0=10-1"
attr network Network
attr processid 66432
attr repetition 0
attr replication #0
attr resultdir results
attr runnumber 0
attr seedset 0
itervar i 1
param **.resourcePool.amount 1
param **.resourcePool1.amount 10-1
param **.source.interArrivalTime uniform(5s,15s)
param **.delay.delay uniform(10s,70s)
param **.delay1.delay uniform(20s,40s)
param **.allocate.resourceModuleName "\"Network.resourcePool\""
param **.allocate1.resourceModuleName "\"Network.resourcePool1\""
param **.deallocate.resourceModuleName "\"Network.resourcePool\""
param **.deallocate1.resourceModuleName "\"Network.resourcePool1\""

vector 0 Network.allocate queueLength:vector ETV
attr interpolationmode sample-hold
attr title "queue length, vector"
vector 1 Network.allocate1 queueLength:vector ETV
attr interpolationmode sample-hold
attr title "queue length, vector"
vector 2 Network.sinkStat lifeTime:vector ETV
attr interpolationmode none
attr title "lifetime of arrived jobs, vector"
attr unit s
0	0	0	0
0	5	21.416581186932	1
0	7	34.859238627833	2
0	9	45.886872331612	3
0	11	59.466328530107	4
0	13	63.399496921339	3
0	18	69.915160303936	4
0	20	81.150797267911	5
0	25	92.609738418833	6
0	27	101.453555501067	7
0	29	110.829427600839	8
0	31	118.804773653393	9
0	33	124.234601156787	8
0	38	132.722503670958	9
0	40	137.637379700319	8
0	45	140.44906661613	9
0	47	153.366316950415	10
0	52	166.488004215062	11
0	57	170.643870979549	10
0	62	176.776953430381	11
0	64	185.704801362008	12
0	66	199.960767694283	13
0	71	209.442501263694	12
0	76	213.321555382572	13
0	78	219.19284835225	14
0	80	223.704664786347	13
0	85	230.674567117822	14
0	87	234.917768733577	13
0	95	244.000765546226	14
0	97	250.404273320456	15
0	102	264.104394773022	16
0	107	277.805267283694	17
0	109	292.591450712645	18
0	111	302.327531112825	19
0	113	302.347077992746	18
0	118	315.319116751199	19
0	120	325.523891556078	20
0	125	338.3291833126	21
0	127	350.117978649215	22
0	129	356.300722886809	23
0	131	360.401723142715	22
0	136	368.507049402688	23
0	138	374.940582257696	24
0	140	385.31431454001	25
0	145	399.761003726162	26
0	147	408.796984162183	25
0	152	412.347159930505	26
0	154	421.49377934169	27
0	159	431.229783568997	28
0	161	438.875339683145	29
0	163	445.738663128577	30
0	165	450.107883852908	29
0	170	458.480999993626	30
0	172	465.646503560711	31
0	174	476.33084304398	32
0	179	482.683024776635	33
0	181	487.870922756848	34
0	183	496.112332798076	35
0	185	504.322974528188	34
0	190	507.288687806578	35
0	192	514.511901661755	36
0	194	523.30346635543	35
0	199	525.681241648273	36
0	204	539.707226362081	37
0	206	551.525429340547	38
0	208	556.492805038581	37
0	213	561.024929236157	38
0	218	570.3952487628	39
0	220	584.418734544891	40
0	222	588.063279162163	39
0	230	596.395046499095	40
0	232	604.020100254567	39
0	240	611.093137185092	40
0	242	622.799515922091	41
0	244	629.508611783388	42
0	246	636.612437400038	43
0	251	645.193959102037	44
0	253	651.483222085519	45
0	255	654.02610293124	44
0	260	663.990083474202	45
0	262	672.627191208305	46
0	264	680.877663483845	47
0	266	682.951803910547	46
0	274	691.579631243369	47
0	276	695.257329442539	46
0	281	702.922371774914	47
0	283	708.942819843071	48
0	288	720.470723032488	49
0	290	727.559490618298	50
0	295	738.910079388881	51
0	297	745.52317450056	52
0	299	760.476170156618	53
0	301	764.559759353288	52
0	306	772.007253377234	53
0	308	781.150939257351	54
0	313	790.814046985471	55
0	315	800.56102203671	56
0	317	808.005277917256	57
0	319	809.470779285767	56
0	324	819.240378977266	57
0	326	825.344130368904	58
0	328	829.008954474703	57
0	336	837.091653591488	58
0	338	843.473483086564	59
0	343	856.256937903818	60
0	345	863.222761470825	61
0	347	877.718471984845	62
0	349	878.388729994186	61
0	354	886.405723642093	62
0	356	891.541440060829	63
0	358	897.512452772354	64
0	360	908.74091370497	65
0	365	922.120362771676	66
0	367	928.140342077241	65
0	372	933.856959082187	66
0	374	943.906246144325	65
0	379	948.621553734411	66
0	381	958.717797452119	67
0	389	973.485408360139	68
0	391	979.042555289343	69
0	393	990.091010469478	70
0	395	999.602602608502	71
0	397	1006.597854257562	70
0	402	1011.995238421951	71
0	404	1017.797114597634	70
0	409	1021.412347636652	71
0	414	1027.614313282539	72
0	416	1036.208757972346	73
0	418	1044.170159965289	74
0	420	1044.765532165766	73
0	425	1053.979095327669	74
0	430	1061.889195023105	73
0	435	1062.158927060665	74
0	437	1076.341281789356	75
0	442	1081.982756799554	76
0	444	1089.150978131221	77
0	449	1101.075699324721	78
0	451	1111.727587981151	79
0	453	1122.393602465747	80
0	455	1124.717748612166	79
0	460	1136.044628105594	80
0	462	1146.277108634824	81
0	464	1150.641118078493	80
0	472	1160.444338200616	81
0	474	1166.277548437939	80
0	479	1171.203803152314	81
0	481	1178.980988792612	82
0	483	1181.264297636227	81
0	488	1187.166678342039	82
0	493	1191.825699741022	81
1	0	0	0
2	23	91.872592857108	81.384457834065
2	50	163.507856437937	142.091275251
2	55	167.190681933426	132.33144330559
2	69	202.004762254657	156.11788992304
2	93	236.190424496309	176.7240959662
2	100	251.069495533594	181.15433522966
2	105	270.480903871359	189.33010660345
2	123	331.576665248723	238.96692682989
2	143	392.042118967512	290.58856346645
2	157	430.915136290716	320.08570868988
2	177	479.230890572073	360.42611691868
2	202	536.564888977448	403.84238530649
2	216	562.178427861074	421.72936124494
2	228	588.754074275496	435.38775732508
2	238	609.267788492145	442.77978427708
2	249	637.082900898533	460.30594746815
2	272	686.182716265322	500.47791490331
2	286	711.723834178411	511.76306648413
2	293	734.436314827763	521.11475944519
2	311	789.625591379591	570.43274302734
2	334	836.230931635947	605.55636451812
2	341	855.352989370004	611.35222382378
2	363	914.808594612405	664.40432129195
2	384	967.579242056236	703.47484728321
2	387	973.279270110652	695.47400282696
2	412	1027.381610036828	734.79015932418
2	428	1057.388849207201	755.06131809438
2	440	1078.538755890914	763.21963913972
2	447	1090.17445479054	764.65056323446
2	470	1154.897127831355	816.56794451875
2	491	1189.064270318486	838.94629166927

