version 2
run Iteration-5-20200521-08:30:17-63492
attr configname Iteration
attr datetime 20200521-08:30:17
attr experiment Iteration
attr inifile omnetpp.ini
attr iterationvars "$i=6, $0=10-6"
attr iterationvarsf i=6,10-6-
attr measurement "$i=6, $0=10-6"
attr network Network
attr processid 63492
attr repetition 0
attr replication #0
attr resultdir results
attr runnumber 5
attr seedset 5
itervar i 6
param **.resourcePool.amount 6
param **.resourcePool1.amount 10-6
param **.source.interArrivalTime uniform(5s,15s)
param **.delay.delay uniform(10s,70s)
param **.delay1.delay uniform(20s,40s)
param **.allocate.resourceModuleName "\"Network.resourcePool\""
param **.allocate1.resourceModuleName "\"Network.resourcePool1\""
param **.deallocate.resourceModuleName "\"Network.resourcePool\""
param **.deallocate1.resourceModuleName "\"Network.resourcePool1\""

vector 0 Network.allocate queueLength:vector ETV
attr interpolationmode sample-hold
attr title "queue length, vector"
vector 1 Network.allocate1 queueLength:vector ETV
attr interpolationmode sample-hold
attr title "queue length, vector"
vector 2 Network.sinkStat lifeTime:vector ETV
attr interpolationmode none
attr title "lifetime of arrived jobs, vector"
attr unit s
0	0	0	0
0	294	339.36745026149	1
0	302	347.782721086407	2
0	304	354.691304008012	1
0	309	355.655386310537	0
0	314	358.247286051048	1
0	316	360.886608380825	0
0	321	364.462770740503	1
0	323	369.49788646307	0
0	328	370.328027601355	1
0	330	372.633301895112	0
0	467	491.546004565899	1
0	469	496.41576508293	0
1	0	0	0
1	53	91.882551433519	1
1	55	99.832229746972	0
1	60	101.101377217565	1
1	65	104.935852016788	0
1	83	125.61097858008	1
1	85	127.591121504084	0
1	163	200.779095145409	1
1	166	202.958794729785	2
1	171	210.439230920748	1
1	178	215.849021899048	0
1	186	226.776628368535	1
1	191	229.567190341186	0
1	213	250.021339743399	1
1	215	250.359009206296	0
1	260	293.46344210906	1
1	265	307.123788411264	0
1	332	372.633301895112	1
1	335	377.383883639705	2
1	341	385.040830385406	3
1	343	385.35400789464	2
1	350	390.108385833447	1
1	355	391.418937561104	2
1	357	391.726962695831	1
1	365	397.708008764312	2
1	368	398.156681689435	3
1	370	399.580198689365	2
1	375	401.21345904423	3
1	381	409.252611761913	4
1	383	410.860889751931	3
1	390	426.441589777825	2
1	395	429.647447508761	3
1	397	430.588033371606	2
1	404	432.287322743797	1
1	408	436.900929019322	0
1	413	438.218674405944	1
1	419	447.966111132411	2
1	424	454.17137738783	1
1	431	464.69412508188	0
1	483	502.581209556665	1
1	488	512.351732729004	0
1	493	515.759886822198	1
1	496	517.019111758564	2
1	501	522.994673980866	1
1	505	523.457663834561	0
1	510	525.289965521078	1
1	515	534.935094271787	0
1	530	544.998664520682	1
1	532	557.168942745775	0
1	586	608.497605957092	1
1	588	608.655551802368	0
1	593	613.993637973909	1
1	599	618.525452828036	2
1	601	621.645245184191	1
1	605	621.720722708852	0
1	673	696.671390712728	1
1	678	708.489228789696	0
1	723	748.768551880495	1
1	725	760.866076778621	0
1	806	847.963679204696	1
1	809	851.958385817708	2
1	814	855.617678300479	1
1	819	860.068485180383	2
1	824	868.046308166814	1
1	828	868.288836565336	0
1	843	882.014555719216	1
1	845	882.451159060003	0
1	853	894.69664428616	1
1	858	895.31830409309	0
1	936	966.145481225103	1
1	941	973.527275591622	0
1	956	993.226225271355	1
1	961	996.256628218107	0
1	966	999.596727879251	1
1	968	1000.706828073598	0
1	993	1017.970948619767	1
1	996	1024.099586177617	2
1	998	1024.166064620949	1
1	1005	1029.44497381337	0
1	1010	1040.687054626177	1
1	1015	1045.861434643156	0
2	22	56.97130284505	44.199569923804
2	57	99.832229746972	92.612298033201
2	67	104.935852016788	55.419021765701
2	73	113.843470318243	79.121090043336
2	87	127.591121504084	101.50611018296
2	90	128.658414224629	68.024145357777
2	99	140.223304063547	66.929956595413
2	110	146.511849684174	44.980321177281
2	116	149.973028693349	41.016096114182
2	132	173.253384807612	90.093657355755
2	135	174.186077266931	84.149137553759
2	142	182.926786846947	60.170483929105
2	173	210.439230920748	50.39341012016
2	180	215.849021899048	78.090372150763
2	193	229.567190341186	64.375562034547
2	196	231.676569196862	101.87871878035
2	203	239.940132813062	90.893603994044
2	217	250.359009206296	79.233750549611
2	223	254.971333129799	64.138889000752
2	226	261.889686982613	56.417937560472
2	236	270.391852608883	59.014616240748
2	239	275.298706318718	90.907905139029
2	267	307.123788411264	90.503486441449
2	270	310.42228487553	81.952826841734
2	283	320.974173876457	79.070963212289
2	286	324.000115888194	46.394041394815
2	297	341.057087073569	88.522001355887
2	300	342.221875316463	77.777477637864
2	345	385.35400789464	74.223444014788
2	352	390.108385833447	97.646067305468
2	359	391.726962695831	87.594052855857
2	372	399.580198689365	72.630278673023
2	385	410.860889751931	52.613603700883
2	392	426.441589777825	78.658868691418
2	399	430.588033371606	114.43532733945
2	406	432.287322743797	99.692333755083
2	410	436.900929019322	66.572901417967
2	426	454.17137738783	68.478068560362
2	433	464.69412508188	100.23135434138
2	439	465.314326211811	125.94687595032
2	446	470.585584093352	73.574614755344
2	459	485.098544461654	68.587729015854
2	462	487.834747314921	107.7635540301
2	465	490.159287650605	82.487498316914
2	490	512.351732729004	68.325983928517
2	503	522.994673980866	70.358441015705
2	507	523.457663834561	92.680022181011
2	517	534.935094271787	50.831998405047
2	520	536.88343640417	66.230892844034
2	534	557.168942745775	92.027827219572
2	540	561.780660983641	103.78933767788
2	543	562.109558435623	70.563553869724
2	556	580.329470548314	75.832591247745
2	563	584.089505746961	54.197142962366
2	590	608.655551802368	50.892238528468
2	603	621.645245184191	55.354700502939
2	607	621.720722708852	102.66335734166
2	610	624.55065027578	32.964379638434
2	619	642.607518830338	66.476371190511
2	626	650.644125174732	64.409429589286
2	632	651.940004494973	107.61224085232
2	642	665.438040583396	59.108170280233
2	656	680.763569863049	82.650668057613
2	680	708.489228789696	93.562509785406
2	683	709.347879793496	48.589528435841
2	686	711.085343710148	73.192746127024
2	699	727.053215915804	76.155854146927
2	709	735.130191757345	106.70367244398
2	727	760.866076778621	90.993889230303
2	733	764.426501560958	79.702946073376
2	736	766.480917239097	76.217740774154
2	753	783.494111583569	78.353972267359
2	756	783.718406502158	66.548846452496
2	769	800.761501730886	52.3762228759
2	772	802.761155404152	67.678031688556
2	785	828.933773671743	104.59138474427
2	816	855.617678300479	93.682762798853
2	826	868.046308166814	77.857049223966
2	830	868.288836565336	90.25935982354
2	833	869.121533539148	101.35923240334
2	847	882.451159060003	60.149650527165
2	860	895.31830409309	98.905865170527
2	863	899.601841943804	45.580349895171
2	866	900.855012119284	93.389469431714
2	876	910.070429900663	64.786082997454
2	882	920.603071588558	47.917496957816
2	899	928.403184020427	94.086147178896
2	916	949.239220391028	63.450503433123
2	926	962.274695443922	96.803948418238
2	943	973.527275591622	52.05433122348
2	946	980.971765578725	85.685613048263
2	963	996.256628218107	68.932979195379
2	970	1000.706828073598	92.288970248773
2	973	1004.946779899764	90.894912250805
2	983	1013.360564392059	47.240772070363
2	1000	1024.166064620949	83.186468572822
2	1007	1029.44497381337	95.418824010995
2	1017	1045.861434643156	51.468278411776
2	1023	1053.622627626173	98.396574021318
2	1026	1055.442238519899	83.72422981076
2	1036	1066.484035886823	80.116060746368
2	1039	1068.165842220187	60.515627660789
2	1056	1090.363969376776	76.374865388498
2	1073	1107.11455816403	78.323159152642
2	1076	1111.496699084527	54.379358193837
2	1082	1119.240351580083	78.386744982563
2	1089	1121.469714576378	73.197517450899
2	1113	1149.990706394892	65.053156544455
2	1120	1159.329506740904	88.315289583988
2	1130	1166.046983983832	63.827239279635
2	1136	1174.873707084916	83.983017797582
2	1153	1192.260497480165	62.53854024224

