version 2
run Iteration-15-20200521-09:51:41-70120
attr configname Iteration
attr datetime 20200521-09:51:41
attr experiment Iteration
attr inifile omnetpp.ini
attr iterationvars "$i=2, $j=3, $0=15-(2+3)"
attr iterationvarsf i=2,j=3,15-(2+3)-
attr measurement "$i=2, $j=3, $0=15-(2+3)"
attr network Network
attr processid 70120
attr repetition 0
attr replication #0
attr resultdir results
attr runnumber 15
attr seedset 15
itervar i 2
itervar j 3
param **.resourcePool.amount 2
param **.resourcePool1.amount 3
param **.resourcePool2.amount 15-(2+3)
param **.source.interArrivalTime exponential(6min)
param **.delay.delay uniform(4min,28min)
param **.delay1.delay uniform(10min,28min)
param **.delay2.delay uniform(4min,16min)
param **.allocate.resourceModuleName "\"Network.resourcePool\""
param **.allocate1.resourceModuleName "\"Network.resourcePool1\""
param **.allocate2.resourceModuleName "\"Network.resourcePool2\""
param **.deallocate.resourceModuleName "\"Network.resourcePool\""
param **.deallocate1.resourceModuleName "\"Network.resourcePool1\""
param **.deallocate2.resourceModuleName "\"Network.resourcePool2\""
param **.router.randomGateIndex "uniform(0, 1) > 0.2 ? 0 : 1"

vector 0 Network.allocate queueLength:vector ETV
attr interpolationmode sample-hold
attr title "queue length, vector"
vector 1 Network.allocate1 queueLength:vector ETV
attr interpolationmode sample-hold
attr title "queue length, vector"
vector 2 Network.allocate2 queueLength:vector ETV
attr interpolationmode sample-hold
attr title "queue length, vector"
vector 3 Network.sinkStat lifeTime:vector ETV
attr interpolationmode none
attr title "lifetime of arrived jobs, vector"
attr unit s
vector 4 Network.sink lifeTime:vector ETV
attr interpolationmode none
attr title "lifetime of arrived jobs, vector"
attr unit s
0	0	0	0
0	15	1466.501363822359	1
0	17	1582.47060274556	2
0	19	1684.669067927368	1
0	32	2522.939977729895	2
0	34	2653.651441548656	3
0	36	2687.869398549862	2
0	41	2723.772548042745	1
0	50	3088.776844360597	0
0	55	3111.822799194684	1
0	61	3323.627118669958	0
0	65	3362.811123517376	1
0	67	3375.570410371489	0
0	85	4085.615921269979	1
0	91	4356.89830073765	0
0	96	4526.217054582707	1
0	102	4570.848465698639	2
0	104	4733.578842512108	3
0	122	5033.170932859845	2
0	127	5399.028741785056	1
0	140	5712.388212845237	0
0	199	7982.269443381956	1
0	201	8127.396858517421	0
0	213	8729.389769463354	1
0	219	8871.436946839049	2
0	221	8923.104261203532	3
0	223	9110.734484982096	4
0	225	9122.84562425835	3
0	234	9292.920688759876	2
0	239	9477.564813589286	1
0	252	9778.800815008985	2
0	262	10016.665901593879	3
0	264	10067.891961818947	4
0	274	10565.593459998798	3
0	279	10588.498693216933	2
0	284	10617.078498357635	3
0	306	11470.73603380133	2
0	315	11726.458242890966	1
0	320	11939.454774898168	2
0	322	12088.139871216943	3
0	332	12653.071213896901	4
0	334	12695.76257589866	3
0	347	13299.606385996175	2
0	352	13322.875326309694	1
0	357	13385.751346778578	2
0	363	13703.607791025532	1
0	367	13853.823133163011	2
0	369	14074.325279390049	1
0	387	14605.207762454046	0
0	392	14724.000440266878	1
0	406	15063.840206136537	0
0	415	15349.109590229875	1
0	417	15373.146336364239	2
0	419	15413.815577647152	3
0	429	15714.20895889063	2
0	438	15755.448122808544	3
0	452	16582.481299621594	2
0	461	17276.044571992351	1
0	470	17679.531446675354	2
0	476	17693.44109034313	1
0	481	17737.313355834863	2
0	483	18009.676320572925	1
0	500	18747.776230125792	2
0	502	18777.003529776229	1
0	519	18915.53085245075	2
0	521	19069.187583608163	1
0	530	19145.236375389178	2
0	536	19522.830014050227	3
0	538	19599.155513254536	2
0	547	19892.310853410854	1
0	552	19942.045522730206	2
0	558	20290.25766484101	1
0	567	20444.667580296827	0
0	571	20533.592251764586	1
0	573	20613.326085376951	2
0	575	20704.555820893838	1
0	597	21291.163983849419	0
0	606	21582.56647981719	1
0	608	21784.001533119945	2
0	622	22133.870118362519	3
0	628	22263.504188876941	2
0	633	22417.340228279663	1
0	638	22462.871518046716	2
0	644	22704.065536816015	1
0	649	22747.417374837682	2
0	655	22957.089452963664	1
0	672	23284.045700664352	2
0	674	23284.439261076	3
0	676	23371.940739188685	2
0	684	23634.199830835296	1
0	693	23802.597143108873	2
0	695	23887.455238563198	3
0	702	23970.017246302559	2
0	719	24569.798505416169	3
0	721	24578.767006320866	4
0	723	24787.872682694688	3
0	732	24864.284583611025	2
0	740	24919.14158613065	3
0	747	25124.053404171405	4
0	749	25242.828851585819	3
0	761	25486.419941914126	4
0	772	25793.009701503052	3
0	776	25977.481794018641	2
0	798	26724.517881927623	1
0	811	27121.819219758345	0
0	820	27373.86487061918	1
0	822	27455.78480582346	0
0	831	27691.578743610101	1
0	837	27754.147051883436	2
0	847	28139.12834933175	1
0	856	28246.703286576801	2
0	858	28415.813760554029	1
0	875	28848.402297820684	2
0	877	29065.260763351217	1
0	886	29200.142164844468	2
0	896	29541.487942730619	1
0	901	29760.64022547976	2
0	903	29833.001144567464	3
0	909	29879.631870436343	4
0	911	29965.121256519452	3
0	924	30291.708081459238	2
0	929	30567.803721522524	1
0	938	31000.605075281456	0
0	942	31138.918439481963	1
0	953	31418.106792475237	2
0	963	31762.711765148058	3
0	965	31792.349585395589	4
0	975	32085.655945983127	3
0	980	32139.192326755925	4
0	982	32182.559393254652	3
0	999	32543.132626806929	2
0	1004	32630.44350361237	3
0	1006	32718.68315154786	4
0	1008	32762.148188414707	5
0	1010	32800.735947282359	6
0	1020	33062.041187250962	7
0	1026	33521.359327716365	6
0	1031	33597.947403487161	5
0	1044	34285.885807952413	6
0	1046	34303.419249870341	7
0	1048	34464.514636282221	6
0	1065	34806.043511751844	7
0	1071	34944.818289784327	6
0	1084	35561.442632322743	5
0	1097	35813.103310089902	4
0	1102	36247.252624789918	5
0	1104	36258.579928150013	4
0	1113	36415.121624933838	5
0	1115	36419.207512582906	6
0	1117	36470.686607195863	7
0	1119	36631.898423084658	8
0	1125	36698.055324107073	9
0	1131	36810.380319726066	8
0	1136	36888.246457289122	9
0	1138	36945.1015944874	10
0	1140	37176.989200755108	11
0	1154	37632.125003864057	12
0	1156	37694.269978083922	13
0	1158	37747.645780329005	12
0	1171	37805.550411322994	13
0	1173	37867.819483486548	12
0	1190	38724.75310749378	13
0	1192	38837.194007507219	14
0	1194	38856.035157513217	13
0	1203	39236.566664931908	12
0	1212	39551.357678439701	13
0	1214	39635.856589999656	14
0	1216	39801.939991009708	15
0	1218	40081.66397998257	14
0	1223	40151.599391844467	13
0	1231	40464.659573985707	14
0	1238	40636.623929908112	13
0	1242	40696.364477534191	12
0	1246	40764.536977189079	13
0	1257	40849.132879547524	14
0	1259	41200.74768682621	15
0	1270	41268.732686025628	16
0	1272	41543.771864012407	17
0	1274	41588.719125670925	16
0	1283	41835.250830806308	17
0	1289	41917.927860820502	18
0	1291	41984.098554846243	17
0	1295	42028.509969709375	18
0	1297	42222.738022492084	19
0	1308	42417.804316673148	20
0	1314	42872.790149693922	19
0	1323	42976.154573607282	20
0	1337	43181.07768319209	19
0	1342	43383.997493978021	20
0	1352	43640.070245081032	21
0	1354	43721.380967205357	22
0	1360	43745.581024323002	21
0	1369	43978.640100231008	20
0	1378	44008.529481623665	19
0	1387	44740.475462071672	20
0	1389	45060.892758724825	19
0	1393	45323.113291190945	20
0	1400	45505.311372612015	19
0	1413	45677.302874133442	20
0	1415	45787.743024098384	21
0	1417	45889.00427876188	20
0	1422	45894.839749956824	21
0	1432	46485.782652703659	20
0	1440	46602.973056650091	21
0	1447	46803.537914205699	22
0	1449	46897.915814515547	21
0	1458	47055.468971192751	22
0	1460	47148.235726017849	21
0	1473	47569.166165139891	22
0	1483	47988.326266777114	21
0	1488	48119.701721129553	20
0	1496	48158.104611446318	21
0	1498	48292.590605878818	22
0	1500	48305.406750921504	21
0	1509	48413.768241561691	22
0	1511	48447.451117207621	23
0	1530	49027.048405123899	24
0	1540	49359.115629985513	25
0	1542	49380.496782322765	26
0	1544	49481.501684893267	25
0	1549	49519.083682430522	24
0	1554	49582.584336379637	25
0	1568	50137.583795656995	24
0	1581	50637.012894895061	25
0	1587	51024.845806729393	24
0	1592	51095.411740039154	25
0	1598	51197.804996975864	26
0	1604	51425.463992391126	25
0	1609	51490.988535602293	26
0	1611	51660.452253726856	25
0	1624	51859.837265966576	26
0	1630	51982.817659919695	25
0	1635	52595.775370259182	24
0	1639	52691.366073503183	25
0	1641	52788.340788429217	24
0	1659	53024.626377214335	25
0	1661	53076.872388080386	26
0	1675	53255.152142295415	27
0	1677	53281.586932024482	28
0	1679	53307.499005411993	29
0	1681	53639.568259552425	30
0	1687	53710.724174921946	29
0	1692	53985.058016815876	30
0	1694	54119.439664554195	29
0	1707	54470.537780519919	28
0	1716	54803.624792491631	27
0	1720	55013.344643075363	26
0	1729	55161.638894895409	27
0	1756	55893.079291206197	26
0	1765	56026.212383826809	25
0	1770	56336.237697479239	26
0	1772	56578.095393089192	25
0	1785	56698.256214968043	26
0	1799	57391.719959076838	25
0	1804	57413.929568884509	24
0	1809	57671.529550828173	25
0	1815	57734.233985614376	24
0	1820	57995.233793874817	23
0	1832	58151.18219752141	24
0	1834	58165.714021158362	25
0	1836	58344.649879587387	26
0	1838	58349.041295495229	25
0	1842	58356.119545813428	26
0	1844	58476.750033331649	25
0	1862	58710.092317743364	26
0	1864	58718.749334436082	27
0	1871	59033.847475681799	26
0	1875	59047.093797420697	25
0	1883	59194.425394461042	26
0	1890	59322.818120387851	27
0	1900	59525.784886573987	26
0	1904	59595.176428204024	27
0	1911	59804.678745154637	26
0	1915	60128.390998972194	25
0	1932	60513.515524792648	26
0	1939	60948.250193965036	25
0	1947	60995.806142769943	26
0	1949	61014.225977247264	27
0	1951	61101.604532397985	28
0	1958	61370.661937241988	27
0	1962	61378.710012645437	28
0	1968	61561.616052161815	29
0	1974	61656.832879724	30
0	1990	61997.935951578912	31
0	1992	62055.960755329818	32
0	1998	62413.181628120677	31
0	2007	62461.622576337654	30
0	2020	62907.404400014957	31
0	2022	63021.912084606902	32
0	2028	63116.115171929435	31
0	2041	63824.721923131842	30
0	2054	64230.552495108851	31
0	2056	64300.776721743481	30
0	2065	64323.430158664925	31
0	2079	64774.723287915425	30
0	2084	64903.276558433841	31
0	2086	64988.523866717119	30
0	2095	65161.351152513489	31
0	2097	65265.440093551848	32
0	2103	65501.634168453355	33
0	2109	65555.962830499126	34
0	2115	65654.215927453386	35
0	2121	65795.488789862797	36
0	2127	66228.186651511771	37
0	2129	66231.651498807208	36
0	2134	66324.597503749389	37
0	2140	66351.78835142066	36
0	2145	66826.960804464592	37
0	2155	67429.343388562617	38
0	2157	67647.87145702316	37
0	2166	67951.429907145079	38
0	2168	67974.888384450574	37
0	2177	68220.232412185142	38
0	2179	68459.60582499778	39
0	2185	69155.517757047315	38
0	2198	69279.377053660886	37
0	2203	69403.917258192201	36
0	2208	69841.497944000514	37
0	2210	69861.868158426483	36
0	2231	70386.07000483952	37
0	2237	70652.135713716583	36
0	2246	70980.201673401507	37
0	2260	71190.269159932037	36
0	2265	71437.639254146208	37
0	2267	71538.931177148078	38
0	2277	71921.194230386759	39
0	2279	71989.956886127308	40
0	2281	72056.614031702149	41
0	2283	72174.72042206337	40
0	2288	72201.120369030074	41
0	2290	72240.688278061883	40
0	2299	72450.391308590195	41
0	2301	72512.463907551037	42
0	2303	72633.722510289722	43
0	2309	72838.351126854853	42
0	2318	73390.314395461579	41
0	2327	73506.754034185787	42
0	2329	73587.051947619738	43
0	2331	73781.091218290729	44
0	2341	74017.394270879762	43
0	2350	74319.337125068145	42
0	2355	74538.049374293884	41
0	2376	75026.368513276415	40
0	2381	75034.922090828549	41
0	2383	75082.985297644952	42
0	2385	75206.027804779257	43
0	2387	75224.356992057551	44
0	2393	75306.574229953425	43
0	2397	75319.277624335056	44
0	2412	75852.729933393734	43
0	2417	75865.50472991385	44
0	2423	75998.701027069589	43
0	2448	76698.575263446962	44
0	2450	77013.366336581844	43
0	2459	77286.789146309334	42
0	2464	77387.285404947003	41
0	2468	77425.642823279529	42
0	2479	77647.614676092168	41
0	2488	78137.102709187722	42
0	2494	78312.450690414508	43
0	2496	78353.117362071177	42
0	2500	78427.094717623039	43
0	2511	78676.55187493338	42
0	2524	78912.508264818768	43
0	2526	78937.234587556215	44
0	2532	79079.412716060867	45
0	2534	79199.448410455486	44
0	2539	79242.877549663069	45
0	2549	79606.426522264057	46
0	2559	80265.480719340581	45
0	2564	80395.951719577855	46
0	2566	80532.155452636757	47
0	2568	80605.097230073413	46
0	2585	81247.680383680004	45
0	2594	81744.095979039503	46
0	2596	81808.078209890749	47
0	2602	81878.743687492213	46
0	2611	81993.933706677935	47
0	2617	82054.927142282564	46
0	2622	82286.526598358953	47
0	2624	82380.135624183757	48
0	2626	82491.846943442003	49
0	2632	82681.73361148155	50
0	2634	82691.926175650558	49
0	2647	82881.791341554803	50
0	2653	82934.625926055818	51
0	2655	82995.121073272428	50
0	2660	83032.616106883901	51
0	2666	83625.991215018172	50
0	2679	84066.332967538735	49
0	2688	84468.101474862894	48
0	2697	84606.099429279291	49
0	2699	84657.988151872235	50
0	2705	84806.766097453971	49
0	2718	85305.382190790376	48
0	2731	85868.60412393078	49
0	2733	85882.24847683831	48
0	2754	86594.421339089898	49
0	2756	86612.953718640435	50
0	2770	86803.187481645843	49
0	2775	87100.530616437633	48
0	2784	87249.597442333004	47
0	2789	87446.52254186672	48
0	2795	87770.723672171274	49
0	2801	87983.724722435315	48
0	2806	88072.518508393666	47
0	2810	88102.426459029244	48
0	2825	88515.027831901743	49
0	2831	88588.338353112729	50
0	2833	88620.55518013186	51
0	2843	89170.235053441401	52
0	2845	89189.465757255991	51
0	2850	89449.761936918664	52
0	2856	89533.872381259105	51
0	2865	89858.104207797491	52
0	2867	89914.573081914685	51
0	2872	90022.396739289542	52
0	2874	90114.216401874477	53
0	2884	90524.494347681284	54
0	2886	90588.672770132859	53
0	2895	90774.320644406403	54
0	2901	90892.979419542032	55
0	2907	91218.818359664565	56
0	2909	91290.806473341189	55
0	2914	91496.964363550384	54
0	2923	91689.764806766875	55
0	2925	91696.945546958991	56
0	2939	92019.632748935638	57
0	2941	92051.432013035483	58
0	2947	92297.491079141934	57
0	2956	92697.072717693053	56
0	2961	92703.539972101879	57
0	2963	92742.704943679802	58
0	2965	92834.384942973554	59
0	2971	93042.841255014379	58
0	2980	93503.649984164971	59
0	2982	93549.623672441691	60
0	2984	93570.807933299774	61
0	3002	93919.331275820839	62
0	3004	94132.640226703487	61
0	3009	94162.72222301548	62
0	3015	94226.803460812355	63
0	3017	94257.921109354008	64
0	3019	94319.445310386421	65
0	3021	94455.632691522583	66
0	3023	94509.979701881845	65
0	3028	94557.228948209785	64
0	3045	95221.438951390204	65
0	3047	95228.640723331901	66
0	3053	95256.705148067676	65
0	3058	95339.120357040127	66
0	3068	95594.873183627032	65
0	3073	95635.858266471134	66
0	3079	95692.468540305271	67
0	3081	95787.192680893083	66
0	3086	95990.304145687476	67
0	3088	96107.134579146778	68
0	3098	96673.262005370461	67
0	3103	96782.065559198697	66
0	3112	96940.395031940543	65
0	3125	97198.03748898644	66
0	3127	97228.216945122634	67
0	3129	97265.165018612375	68
0	3131	97290.081221742173	67
0	3135	97491.364879383486	68
0	3146	97745.18482721387	69
0	3152	97924.951576154196	70
0	3154	98021.547963564833	69
0	3167	98331.225507319638	70
0	3173	98517.799297442277	69
0	3178	98575.758271102213	68
0	3183	98593.358479097982	69
0	3185	98622.229680036426	70
0	3199	99224.459965973622	71
0	3201	99261.902109492921	70
0	3210	99519.494702590872	71
0	3216	99634.909832389696	72
0	3218	99638.302359628703	73
0	3224	99949.61200049295	72
0	3233	100144.486740096803	73
0	3235	100189.466917435822	74
0	3245	100441.489727612058	75
0	3255	100697.525423538291	74
0	3260	100775.039461307975	75
0	3262	100796.771447530825	76
0	3268	100998.446635166048	77
0	3270	101114.223484584032	78
0	3272	101132.750549448271	77
0	3277	101279.40425213089	76
0	3286	101534.271350462341	75
0	3295	101877.192947087218	76
0	3305	102137.79865167105	77
0	3311	102272.315008599663	76
0	3316	102294.074926696689	77
0	3318	102294.644020428928	78
0	3320	102507.095760340136	79
0	3322	102516.032026094933	78
0	3331	102659.704894679176	79
0	3333	102725.607709488028	80
0	3343	102883.151667785251	79
0	3348	102976.89912260261	80
0	3358	103461.710337695086	79
0	3363	103633.121244107922	78
0	3367	103787.079393905276	79
0	3374	103954.031093221338	80
0	3388	104489.890024736644	81
0	3390	104554.870044250393	80
0	3403	104657.856431266152	81
0	3405	104793.853329067668	80
0	3410	104798.968267610078	81
0	3416	104884.483920519107	82
0	3418	104937.302523243094	83
0	3420	104943.987147910941	84
0	3422	104948.398425915866	85
0	3428	105024.758805711536	86
0	3430	105062.495551389684	87
0	3432	105322.372079479094	88
0	3434	105330.049043317214	89
0	3436	105360.938408983694	90
0	3438	105705.385963042816	89
0	3455	106125.891498361135	88
0	3460	106541.424287130674	87
0	3465	106593.180198581299	88
0	3475	106841.20146314519	89
0	3481	107137.512343296993	90
0	3487	107193.239019424771	91
0	3489	107448.945200066845	92
0	3499	107771.227371354008	91
0	3504	107801.677169562437	92
0	3510	108104.756690209349	91
0	3519	108239.084381949327	92
0	3521	108316.262946134734	93
0	3523	108703.551964920239	94
0	3529	109212.132436366109	95
0	3531	109228.939862173403	94
0	3536	109393.95633423849	93
0	3545	109597.400642837668	94
0	3555	109745.916323085865	93
0	3560	110044.865377714476	92
0	3564	110226.038399201265	93
0	3566	110263.520634770794	94
0	3568	110369.794289242829	93
0	3572	110488.766215153546	94
0	3574	110513.651681189975	93
0	3578	110521.358538148854	94
0	3590	110659.41990161721	95
0	3597	111055.673407509299	96
0	3603	111123.931121358078	97
0	3605	111138.68578164055	96
0	3609	111149.806148793966	97
0	3628	111574.494398984091	98
0	3630	111646.964158309375	99
0	3632	111664.261971485223	98
0	3637	111749.489608566241	99
0	3639	111831.959596110126	98
0	3656	112153.465318932472	99
0	3658	112190.933857854809	98
0	3679	112973.673336554433	99
0	3681	113008.843376135072	98
0	3690	113245.96911318263	97
0	3699	113381.274096049711	98
0	3701	113511.967143850136	99
0	3703	113656.74586675724	98
0	3707	113671.677888663622	99
0	3722	113998.120770883812	100
0	3724	114076.799424049994	99
0	3733	114213.313577324813	100
0	3739	114385.042250986659	101
0	3741	114474.788936582943	100
0	3746	114480.316469963994	99
0	3758	114999.417507109741	100
0	3760	115036.035146493571	101
0	3762	115042.278523864343	102
0	3764	115191.335309888134	103
0	3766	115206.283134330418	102
0	3780	115407.653894019571	103
0	3790	115579.64539582263	104
0	3792	115638.124250938333	105
0	3794	115946.588794162115	104
0	3799	116057.546731565502	103
0	3820	116484.738713979333	104
0	3822	116635.468748739339	105
0	3824	116680.532849092391	104
0	3829	116715.111918488539	105
0	3831	116902.719469331007	106
0	3833	116977.871878380866	107
0	3843	117016.720324812075	106
0	3856	117358.879752589008	105
0	3873	117743.516417185904	106
0	3879	118119.880590235433	105
0	3884	118200.673501264659	104
0	3901	118391.357437433641	105
0	3903	118586.818511221913	104
0	3908	118622.100183637035	105
0	3910	118691.936455917932	106
0	3912	118836.460286431119	107
0	3914	118884.238581452807	108
0	3924	119276.299915445587	107
0	3929	119378.561182692364	108
0	3931	119447.727667274569	109
0	3941	119782.273577224818	108
0	3958	120257.660842632493	107
0	3963	120287.396769706515	106
0	3968	120333.879670864793	107
0	3982	120609.091718939535	108
0	3984	120692.78857780322	109
0	3990	120989.205369362901	110
0	3992	121070.27222914392	111
0	4002	121354.106434286738	112
0	4004	121474.317024222741	113
0	4006	121485.087053897466	114
0	4016	121763.69662668219	113
0	4021	121783.380342704794	112
0	4026	122170.303810792981	113
0	4028	122260.369007064522	114
0	4030	122628.057078045217	113
0	4035	122872.60373164489	114
0	4049	123338.989441936454	113
0	4054	123355.798358748797	114
0	4056	123560.228643525747	113
0	4061	123588.182298803546	114
0	4071	124459.992076307695	115
0	4073	124622.576059299957	116
0	4075	124667.52560498341	115
0	4088	124835.547050245955	116
0	4090	125067.070349334488	117
0	4096	125093.833059590665	116
0	4109	125575.845157077154	115
0	4126	126422.862733003107	114
0	4131	126800.979685863608	115
0	4137	126885.136759785553	114
0	4142	126916.337607787715	115
0	4144	127137.676997095085	116
0	4154	127274.301791640296	117
0	4156	127314.361157600192	116
0	4161	127343.223363275397	117
0	4163	127458.472287273671	118
0	4165	127592.244902086993	117
0	4170	127593.177922801499	118
0	4176	127649.566379484145	117
0	4184	128042.0883012019	116
0	4193	128426.020006046901	117
0	4200	128573.838836194638	118
0	4210	128869.647853184847	117
0	4223	129304.554903555463	118
0	4233	129717.338367199143	117
0	4250	130140.017076997034	118
0	4256	130446.122254986672	117
0	4261	130887.371246550588	116
0	4266	131106.460764650817	117
0	4268	131127.194880616574	118
0	4274	131227.696224918207	117
0	4279	131269.882793971792	118
0	4281	131900.468260009249	119
0	4287	131931.795135449656	120
0	4293	132044.771505888907	119
0	4302	132185.62138972952	118
0	4331	133141.579146791605	117
0	4336	133505.779288637681	118
0	4338	133519.977802668554	119
0	4344	133653.733391049606	120
0	4346	133660.199555513998	119
0	4351	133854.250203646827	120
0	4357	133910.661911431748	121
0	4359	134086.102662111086	122
0	4361	134088.972635452384	123
0	4363	134172.335441342659	124
0	4365	134263.260005469435	125
0	4367	134484.177189913003	124
0	4376	134536.294793320621	125
0	4378	134600.104975156936	126
0	4380	134725.379418019561	125
0	4393	135085.975277443766	126
0	4395	135185.015401867143	127
0	4397	135297.44649598523	126
0	4410	135688.007096384076	125
0	4423	136109.684540178982	124
0	4428	136176.388332670412	125
0	4430	136466.137795971668	126
0	4440	136796.935198885938	125
0	4449	136933.263270774379	126
0	4451	136984.257528182474	125
0	4456	137171.468498875323	126
0	4458	137268.979365669879	127
0	4464	137413.184573008644	128
0	4466	137455.190047134069	127
0	4471	137471.390008275947	126
0	4475	137487.063010842845	127
0	4477	137575.028606550207	128
0	4483	137632.68930618696	129
0	4498	138124.817703742083	130
0	4500	138175.062924638047	131
0	4506	138327.705828304529	132
0	4508	138356.283511278769	131
0	4517	138470.132772892767	132
0	4523	138797.07400585977	133
0	4525	138812.562126327661	132
0	4538	139192.171301129325	133
0	4540	139486.22968815375	134
0	4542	139647.732999605676	133
0	4547	139708.568948988226	132
0	4555	139885.285318752925	133
0	4570	140115.512525533875	132
0	4575	140134.838994775322	131
0	4588	140744.461830725511	130
0	4601	140957.168753706646	131
0	4611	141215.144794029595	132
0	4613	141245.234085708481	133
0	4615	141309.983090884394	134
0	4621	141393.143570960655	135
0	4623	141466.320007402805	134
0	4640	141896.003204362295	135
0	4642	141964.143102844966	136
0	4644	142111.314802389324	137
0	4646	142199.414745491353	136
0	4651	142214.573865152331	137
0	4653	142278.928849232932	136
0	4670	142595.551822357568	137
0	4672	142916.944033488285	138
0	4674	143178.575164513971	139
0	4684	143479.23935956916	138
0	4693	143834.465130513152	137
0	4698	143906.085260332564	138
0	4704	144003.106093515066	137
0	4713	144084.222034556942	138
0	4715	144317.869994282244	139
0	4721	144544.957253021677	140
0	4723	144939.324214686911	141
0	4725	145040.104840194425	140
0	4734	145057.619802108059	141
0	4740	145126.044971008209	140
0	4745	145391.278307755367	141
0	4751	145404.973202746715	142
0	4753	145451.051542828699	143
0	4755	145539.231023791721	144
0	4773	146366.469669883689	143
0	4778	146398.369816203026	142
0	4787	146582.041091778134	143
0	4793	146941.404868025688	142
0	4798	147048.662647865632	143
0	4804	147280.365291102147	144
0	4806	147377.843154390892	143
0	4811	147468.171152244317	144
0	4813	147682.184413891641	143
0	4830	148185.945777261793	144
0	4832	148257.930370057595	145
0	4846	148699.577131105205	144
0	4859	148769.740015449129	145
0	4861	149009.412891337542	146
0	4867	149257.797556031851	145
0	4872	149359.1943313755	144
0	4877	149490.266338103124	145
0	4879	149582.490073767459	146
0	4881	149662.228117754301	145
0	4885	149996.668667918079	146
0	4887	150055.001671563779	147
0	4894	150608.159952827894	148
0	4896	150655.528673427953	149
0	4898	150657.886729517167	150
0	4904	150789.703237932531	149
0	4909	150833.320754041513	148
0	4926	151166.702935360274	149
0	4932	151281.843490634177	150
0	4938	151530.925010723611	149
0	4951	152020.953769314366	150
0	4953	152121.793465559122	151
0	4959	152223.683355917772	150
0	4964	152333.373699780909	149
0	4968	152389.907707315335	150
0	4975	152763.286393947232	151
0	4985	153074.009097653869	152
0	4991	153224.795340725466	153
0	4993	153232.740182610665	154
0	4995	153378.070012876331	155
0	4997	153506.75583447924	154
0	5010	153645.788157155355	153
0	5019	154257.143573719172	154
0	5025	154471.617933409179	155
0	5027	154575.652450617758	154
0	5032	154794.483749029776	153
0	5049	155235.340029461612	154
0	5051	155376.593824964254	155
0	5057	155659.136825708291	154
0	5070	156078.274081606773	153
0	5075	156378.153908696381	152
0	5084	156629.766566029802	153
0	5086	156821.38851039305	154
0	5088	157003.932073099157	153
0	5105	157346.009066860983	154
0	5107	157500.98834226056	153
0	5112	157578.277558395448	154
0	5114	157601.231914788757	155
0	5116	157615.92857952824	154
0	5129	157951.842433343397	155
0	5135	158240.390442749926	156
0	5145	158641.791163293263	155
0	5150	158720.95179412177	154
0	5175	159521.515236144504	153
0	5180	159531.901567737975	154
0	5186	159687.546855234158	155
0	5188	159689.869893121965	156
0	5198	160280.354585744753	157
0	5200	160348.027221333591	156
0	5205	160454.825170358262	155
0	5214	160951.918775451051	156
0	5224	161144.270289409769	157
0	5230	161295.132545918124	158
0	5232	161344.867087409893	159
0	5238	161503.656425887662	160
0	5244	161641.767955159936	161
0	5246	161669.827252474038	160
0	5251	161764.589920436583	159
0	5256	161806.293937368485	160
0	5258	161971.950290423242	159
0	5267	162266.034342008252	160
0	5277	162726.968712023818	161
0	5279	162936.491753125202	162
0	5285	163226.022878905378	161
0	5290	163321.327294629423	160
0	5307	163463.047475315801	161
0	5309	163559.77578649139	162
0	5311	163708.090752918629	161
0	5316	163763.02126352674	162
0	5322	164094.304991600681	163
0	5328	164234.144523946188	162
0	5333	164272.287982515237	163
0	5347	164739.416439836845	164
0	5349	164845.229410227744	163
0	5358	165252.25275801643	162
0	5375	166003.234058782724	163
0	5377	166047.725051885091	162
0	5382	166112.036703069707	163
0	5392	166353.570604842512	162
0	5401	166833.452227955304	161
0	5406	166971.924477786612	162
0	5412	167102.742554275744	163
0	5414	167407.358646054177	162
0	5419	167637.495156278212	163
0	5433	168004.466392194472	162
0	5442	168142.35085682299	163
0	5444	168304.471625606164	164
0	5446	168477.26603383212	165
0	5448	168489.73663759056	166
0	5450	168495.029462311773	165
0	5459	168680.796820308433	166
0	5469	169095.279882162275	167
0	5471	169155.169733087005	168
0	5473	169196.498942232461	169
0	5479	169309.896393861758	170
0	5481	169442.679254991554	169
0	5486	169450.485515767161	170
0	5492	169654.991598238372	171
0	5494	169796.851818334668	170
0	5503	169888.546613564554	171
0	5509	170226.847160078985	172
0	5511	170316.532757164999	173
0	5513	170770.581838979791	174
0	5515	170836.778676767259	173
0	5520	170858.169892413162	172
0	5529	171147.741039263694	173
0	5531	171302.599307710958	174
0	5537	171496.406235980744	175
0	5539	171692.600594086336	176
0	5541	171732.891924363677	177
0	5547	171922.729303923268	178
0	5549	172141.970696334153	177
0	5562	172438.901955356442	176
0	5575	172877.392794845246	175
0	5580	173090.22800996153	176
0	5582	173098.157401437419	177
0	5588	173384.638178592168	176
0	5597	173675.389945415574	177
0	5599	173699.047983806938	176
0	5607	173954.172341039046	177
0	5609	173991.95839705094	176
0	5623	174345.647204663962	175
0	5627	174369.39754116734	176
0	5638	174543.075478695524	177
0	5640	174565.076276307563	178
0	5650	174799.809370502542	179
0	5652	174843.56945402202	180
0	5654	174848.933066373312	179
0	5659	174958.870147025379	180
0	5669	175353.218836810618	181
0	5679	175453.738011205682	182
0	5685	175509.391521994382	181
0	5690	175810.643382721957	182
0	5692	175812.002853124319	183
0	5694	175942.305157949769	182
0	5703	175981.949898710384	183
0	5705	176165.568565238625	182
0	5718	176773.190704085083	183
0	5720	176834.520745223009	182
0	5725	176890.014473179834	183
0	5731	177030.651827177714	184
0	5741	177406.516464630973	185
0	5747	177534.77222094666	186
0	5749	177589.505619878383	187
0	5751	177618.319182951361	186
0	5756	177626.077583762705	187
0	5762	178057.462998015427	186
0	5767	178274.646025892705	185
0	5771	178346.341356276982	186
0	5786	178729.485599041915	187
0	5788	178731.225029697263	186
0	5793	178819.723884981484	185
0	5797	178859.890009925167	186
0	5799	178869.233203001561	187
0	5801	178895.020885961416	188
0	5812	179203.850435381735	189
0	5818	179460.130588294897	190
0	5820	179565.618526953652	191
0	5834	179887.446302800286	192
0	5836	179900.692222223784	193
0	5838	180162.670672726385	194
0	5840	180342.95394322052	193
0	5845	180416.44225161186	192
0	5858	180596.195832771802	191
0	5863	180677.572118513129	192
0	5869	180719.017800178239	193
0	5871	181036.728984568609	194
0	5881	181220.804439869499	195
0	5883	181476.137185614915	194
0	5892	181776.485799645627	193
0	5896	181805.387161007185	194
0	5898	181839.523179309491	195
0	5917	182596.091435087467	194
0	5930	182885.14105945489	193
0	5935	182893.780492002094	194
0	5937	183319.994243845555	195
0	5943	183478.422214446212	194
0	5948	183675.233974267157	193
0	5956	184032.542678304596	194
0	5963	184411.806215509247	195
0	5965	184444.529021871484	196
0	5967	184465.969257532754	197
0	5973	184604.747722008851	198
0	5979	184771.975120190891	197
0	5988	185097.95900823697	196
0	5993	185142.43332269656	197
0	5995	185151.793084506619	198
0	6001	185467.389937779254	199
0	6003	185490.726876603095	200
0	6013	185670.275625605063	201
0	6019	185960.23877350762	200
0	6024	185995.841706801566	199
0	6029	185998.564697990811	200
0	6031	186327.440470591423	201
0	6045	186435.762883831969	202
0	6047	186572.844245647436	203
0	6049	187111.850435195113	202
0	6054	187186.271111067745	201
0	6062	187504.554415644337	202
0	6077	187838.01223747087	203
0	6087	188183.950205763687	204
0	6097	188351.282197159144	203
0	6102	188392.28696365137	204