version 2
run Iteration-3-20200521-08:30:12-54880
attr configname Iteration
attr datetime 20200521-08:30:12
attr experiment Iteration
attr inifile omnetpp.ini
attr iterationvars "$i=4, $0=10-4"
attr iterationvarsf i=4,10-4-
attr measurement "$i=4, $0=10-4"
attr network Network
attr processid 54880
attr repetition 0
attr replication #0
attr resultdir results
attr runnumber 3
attr seedset 3
itervar i 4
param **.resourcePool.amount 4
param **.resourcePool1.amount 10-4
param **.source.interArrivalTime uniform(5s,15s)
param **.delay.delay uniform(10s,70s)
param **.delay1.delay uniform(20s,40s)
param **.allocate.resourceModuleName "\"Network.resourcePool\""
param **.allocate1.resourceModuleName "\"Network.resourcePool1\""
param **.deallocate.resourceModuleName "\"Network.resourcePool\""
param **.deallocate1.resourceModuleName "\"Network.resourcePool1\""

vector 0 Network.allocate queueLength:vector ETV
attr interpolationmode sample-hold
attr title "queue length, vector"
vector 1 Network.allocate1 queueLength:vector ETV
attr interpolationmode sample-hold
attr title "queue length, vector"
vector 2 Network.sinkStat lifeTime:vector ETV
attr interpolationmode none
attr title "lifetime of arrived jobs, vector"
attr unit s
0	0	0	0
0	108	137.407902930864	1
0	113	147.935622415972	2
0	115	148.081346277613	1
0	123	155.77087327838	2
0	125	163.290368276649	1
0	130	166.637072998565	2
0	132	168.505519295577	1
0	137	173.205750405323	2
0	139	176.462983901147	1
0	147	185.782402860932	2
0	149	186.214651919436	1
0	157	193.846038177144	2
0	162	199.71759163309	1
0	167	205.781985193025	0
0	172	207.776689240709	1
0	177	211.66976942448	0
0	185	222.536643519998	1
0	190	230.232809197624	0
0	195	230.789705291391	1
0	197	232.995867058636	0
0	215	250.169384130277	1
0	220	261.703493113164	2
0	228	266.935324426742	1
0	233	271.965004371013	0
0	238	274.574878118001	1
0	240	279.070335035213	0
0	245	281.825423145201	1
0	250	292.453124108724	2
0	252	294.402855348308	1
0	260	302.142526563257	2
0	262	303.658890158403	1
0	270	308.016369938851	0
0	285	324.865625863894	1
0	290	331.166456562932	0
0	295	338.576346370391	1
0	300	345.477553829551	0
0	305	346.356121462304	1
0	310	349.292301551905	0
0	315	352.108122599311	1
0	317	358.175728197675	0
0	329	364.994203418027	1
0	334	371.616921958048	0
0	365	396.480246742721	1
0	373	408.370948398952	0
0	378	409.563869072589	1
0	380	410.679934569634	0
0	395	426.698356899431	1
0	400	437.426295555195	2
0	402	438.372500317636	1
0	413	450.68757630186	2
0	415	459.721773390193	1
0	420	460.139026821124	2
0	422	460.70704634534	1
0	427	467.920929973478	0
0	432	468.161662956698	1
0	437	471.307160286232	0
0	442	475.467505024279	1
0	444	478.277734171134	0
0	478	506.009486890396	1
0	480	511.679181116631	2
0	488	517.460817254612	1
0	493	525.93650896102	2
0	495	527.306345875841	1
0	500	531.814545497762	0
0	505	532.926269213201	1
0	507	536.217086536343	0
0	515	544.852775377219	1
0	517	547.870072789956	0
0	558	589.523801526517	1
0	566	597.162668230009	2
0	568	598.740835820787	1
0	573	601.232616810592	0
0	595	633.6421070178	1
0	603	645.224364898164	0
0	608	646.089630250349	1
0	610	651.216588451058	0
0	618	660.054596830155	1
0	620	661.584200414362	0
0	635	681.919698244887	1
0	640	688.588642731773	0
0	645	688.883504022373	1
0	650	696.220424114721	2
0	652	701.588685908351	1
0	660	708.477120359888	2
0	665	714.114209515969	1
0	670	716.055104176045	0
0	675	723.060482696159	1
0	677	723.761344798837	0
0	682	733.496425994666	1
0	690	743.52172815706	2
0	695	748.269969753454	1
0	703	753.410460650915	2
0	705	761.394529188977	3
0	707	761.924223541279	2
0	712	768.611743717919	1
0	717	774.270711191924	2
0	719	777.113389505536	1
0	724	782.440111162136	0
0	729	784.303264094045	1
0	734	788.052663267587	0
0	739	790.039500740816	1
0	744	796.245674416416	2
0	749	800.192535661624	1
0	754	803.072914248327	0
0	759	807.6474406477	1
0	767	812.527621525803	0
0	772	815.326918195927	1
0	774	822.420651691494	2
0	779	825.474157028363	1
0	787	830.18706715898	2
0	792	831.825631360988	1
0	797	834.631406152618	0
0	805	841.698294812808	1
0	807	848.161457036616	2
0	812	859.683688285289	3
0	820	873.071442078794	2
0	825	874.638120033772	3
0	827	879.316644601055	2
0	832	883.99332555476	3
0	834	893.911481036333	4
0	836	894.746184786779	3
0	841	895.689853115472	2
0	846	899.488795914216	3
0	854	906.672774932807	4
0	856	912.525687827726	3
0	864	917.080383286806	4
0	866	922.144489854105	3
0	871	932.063214532094	4
0	876	939.666665270919	5
0	878	940.458412780421	4
0	883	942.346502274737	3
0	888	946.243362824893	4
0	893	954.650247662789	5
0	895	957.293060889932	4
0	903	963.050306914369	5
0	908	971.173452485817	4
0	913	971.985571491529	3
0	921	976.691503610922	4
0	923	990.168723152013	5
0	928	991.977063324297	4
0	933	996.749059760471	5
0	938	1004.825897042167	6
0	940	1006.080722038165	5
0	948	1006.871325876558	4
0	953	1018.24009322095	5
0	955	1024.188906559714	6
0	960	1026.077915665227	5
0	965	1031.007693149146	4
0	973	1036.45580410491	5
0	978	1047.95153669081	6
0	983	1049.739898068361	5
0	988	1057.147364304395	6
0	993	1060.431854708585	5
0	998	1070.560902021819	6
0	1000	1072.062950814137	5
0	1005	1073.315514652055	4
0	1010	1078.337596149646	3
0	1015	1079.656267098616	2
0	1020	1084.362149911461	3
0	1028	1090.958621494932	4
0	1030	1098.364324641874	5
0	1041	1111.559745478438	6
0	1046	1124.048497127366	5
0	1051	1124.287332822563	4
0	1056	1124.838373521337	5
0	1058	1125.741812970951	4
0	1063	1132.7014148049	5
0	1065	1140.571912452573	6
0	1067	1140.642636311235	5
0	1072	1147.956275430037	6
0	1074	1149.525011091027	5
0	1079	1152.198394616131	4
0	1090	1161.056683461647	3
0	1095	1161.678070572665	4
0	1100	1164.691635284103	3
0	1111	1174.678643844085	4
0	1116	1182.825173786836	5
0	1118	1192.841260239947	4
0	1123	1193.850079097314	5
1	0	0	0
2	43	72.410751264542	56.195523417555
2	46	80.157704255544	33.636586936191
2	64	87.954614409245	77.446635365486
2	70	99.080571096856	69.465852826834
2	80	104.410848289262	38.520492683164
2	87	112.055285400712	51.571237170138
2	90	112.261046431959	40.856018746272
2	106	132.929919601884	97.101915539243
2	111	144.553914056159	61.200649798847
2	121	151.264058048837	56.41935327556
2	145	181.944104668218	79.314527055248
2	155	188.788770427928	60.404473920353
2	160	199.39849954797	86.842562723905
2	175	210.653809604701	92.85805394873
2	183	212.814398447518	75.406495516654
2	188	226.194275233429	70.423401955049
2	207	234.086032137276	86.150409721304
2	213	245.117442996707	71.911692591384
2	218	260.555747966283	74.773345105351
2	223	261.775901813526	95.138828814961
2	226	266.411393189338	58.634703948629
2	248	292.427355742547	98.581317565403
2	258	301.206639381127	70.416934089736
2	268	307.200733376668	62.953519360163
2	283	319.787566952873	97.250923432875
2	288	327.725980735849	66.022487622685
2	298	341.08898698818	66.514108870179
2	308	347.616448490882	97.447064360605
2	332	367.391011689323	74.937887580599
2	344	374.569995473139	72.427468909882
2	354	384.503871358466	102.67844821326
2	360	388.456429273356	63.590803409462
2	363	395.234760502353	81.995997298509
2	368	398.860446282197	52.504324819893
2	371	399.248725476209	47.140602876898
2	386	412.859961967916	74.283615597525
2	398	434.696639070754	69.702435652727
2	408	444.042630670592	84.920720928349
2	411	445.581561026628	70.751502276398
2	435	468.8045870536	81.897662063129
2	450	480.952351966408	84.472105223687
2	464	494.31083067553	67.612473776099
2	470	496.847499844151	78.547629583627
2	473	498.798259503674	61.371963948479
2	476	505.136710479855	95.572841407266
2	483	515.379052793139	64.691476491279
2	486	517.059487430378	48.89782447368
2	513	543.007278235161	47.964429119601
2	523	550.343565728981	74.876060704702
2	530	553.81663237931	47.807145488914
2	547	571.259887136983	111.12086031586
2	550	571.626369289588	59.947188172957
2	553	572.093778701964	86.801815652289
2	561	591.434495372232	46.581719995013
2	564	593.016743229236	60.090474016035
2	593	632.658311708363	106.72180274734
2	598	635.136450396382	68.094651629217
2	601	640.808649542739	85.423096851446
2	616	655.030725686808	77.578730187379
2	633	678.430882948447	72.020915211178
2	638	686.931195135691	66.710119997152
2	648	688.903012110385	91.740343880376
2	658	701.982545854986	112.45874432847
2	663	712.430088671388	52.375491841233
2	685	737.287419894706	103.64531287691
2	688	739.820121137888	93.730490887539
2	693	745.557162151668	56.673658129295
2	701	749.437264637085	78.046012129634
2	732	786.828696753363	104.90899850848
2	742	791.626108009365	68.565625313206
2	747	797.717330872546	64.22090487788
2	762	808.558141903483	100.08102154359
2	765	809.288502898994	113.06807878427
2	777	823.059181950518	61.664652761541
2	785	825.900527113114	82.378798956054
2	790	831.355452672573	57.084741480649
2	803	837.671749086582	47.632248345766
2	810	850.508987240025	42.861546592325
2	815	860.127016385083	75.823752291038
2	818	861.405197328421	107.99473667751
2	849	900.186023903074	103.94034948666
2	852	900.719294759907	85.39237656398
2	862	916.403605081138	86.216537922158
2	874	934.883996925781	112.46334523429
2	891	949.274936388244	89.591248102955
2	901	961.97040427243	113.80894723581
2	906	969.871732406313	128.1734375935
2	919	976.495132406704	82.583651370371
2	926	991.228060645516	116.58994061174
2	936	996.990901397074	79.910518110268
2	946	1006.807219511826	122.81389395707
2	958	1025.876332093025	126.38753617881
2	971	1034.053476457478	87.810113632585
2	976	1040.623763480686	133.95098854788
2	981	1048.867258203681	116.80404367159
2	991	1057.284075389613	117.61741011869
2	1023	1087.284138773099	132.63389111031
2	1026	1090.36515380023	113.67365018931
2	1033	1103.755062485579	98.929165443412
2	1036	1105.691655806728	108.94259604626
2	1039	1108.042237129988	144.99193021562
2	1044	1112.7480005566	122.57927740459
2	1085	1158.263532868581	140.02343964763
2	1088	1160.013903852083	123.55809974717
2	1098	1163.353060102087	139.16415354237
2	1106	1171.36764290044	123.41610620963
2	1109	1174.595949598583	104.03504757676
2	1114	1176.517383991737	119.37001968734
2	1126	1197.691905258689	99.327580616815
2	1129	1199.082751271776	114.72060136032

