version 2
run Iteration-11-20200521-09:51:28-66196
attr configname Iteration
attr datetime 20200521-09:51:28
attr experiment Iteration
attr inifile omnetpp.ini
attr iterationvars "$i=1, $j=12, $0=15-(1+12)"
attr iterationvarsf i=1,j=12,15-(1+12)-
attr measurement "$i=1, $j=12, $0=15-(1+12)"
attr network Network
attr processid 66196
attr repetition 0
attr replication #0
attr resultdir results
attr runnumber 11
attr seedset 11
itervar i 1
itervar j 12
param **.resourcePool.amount 1
param **.resourcePool1.amount 12
param **.resourcePool2.amount 15-(1+12)
param **.source.interArrivalTime exponential(6min)
param **.delay.delay uniform(4min,28min)
param **.delay1.delay uniform(10min,28min)
param **.delay2.delay uniform(4min,16min)
param **.allocate.resourceModuleName "\"Network.resourcePool\""
param **.allocate1.resourceModuleName "\"Network.resourcePool1\""
param **.allocate2.resourceModuleName "\"Network.resourcePool2\""
param **.deallocate.resourceModuleName "\"Network.resourcePool\""
param **.deallocate1.resourceModuleName "\"Network.resourcePool1\""
param **.deallocate2.resourceModuleName "\"Network.resourcePool2\""
param **.router.randomGateIndex "uniform(0, 1) > 0.2 ? 0 : 1"

vector 0 Network.allocate queueLength:vector ETV
attr interpolationmode sample-hold
attr title "queue length, vector"
vector 1 Network.allocate1 queueLength:vector ETV
attr interpolationmode sample-hold
attr title "queue length, vector"
vector 2 Network.allocate2 queueLength:vector ETV
attr interpolationmode sample-hold
attr title "queue length, vector"
vector 3 Network.sinkStat lifeTime:vector ETV
attr interpolationmode none
attr title "lifetime of arrived jobs, vector"
attr unit s
vector 4 Network.sink lifeTime:vector ETV
attr interpolationmode none
attr title "lifetime of arrived jobs, vector"
attr unit s
0	0	0	0
0	5	97.031391450692	1
0	7	339.605105717468	0
0	12	490.435872079145	1
0	14	955.103689976511	2
0	20	1246.639787492144	1
0	25	1638.092009325313	0
0	34	1893.811357537288	1
0	36	2134.364823565868	2
0	38	2203.11832924633	1
0	51	2764.272221825275	2
0	61	3235.584841249144	3
0	67	3498.241081879259	4
0	69	3799.319907625007	3
0	78	4052.254755806222	4
0	80	4532.847080468722	5
0	82	4893.056025441832	6
0	88	5273.62202414571	5
0	97	5294.923484704544	6
0	99	5431.843906917194	7
0	101	5973.839339037702	8
0	107	6035.712944424756	9
0	113	6547.947459210998	10
0	115	6910.524252478766	9
0	120	7161.842022581187	10
0	122	7237.569487406087	11
0	124	7375.77261271609	12
0	126	7457.913048041862	13
0	128	7500.537807142847	14
0	130	7742.237936642754	13
0	139	8103.130470414448	12
0	144	8218.785166618965	13
0	146	8456.355616373795	14
0	148	8476.977673379385	15
0	158	9027.519861441731	16
0	164	9212.424383290044	17
0	170	9458.886552874732	16
0	175	9890.569566288775	17
0	181	10222.296688611003	18
0	183	10511.671587589481	19
0	185	10732.589368534076	18
0	190	10765.860829586309	19
0	204	12320.336428788351	20
0	206	12339.296821665752	19
0	211	12419.074334955572	20
0	217	12601.910572941013	21
0	219	12617.734582283815	22
0	221	12781.003647795115	23
0	223	12859.623890795166	24
0	225	12885.75816631292	25
0	227	13118.724532587043	26
0	229	13194.395965722191	25
0	234	13257.228439834206	26
0	236	13259.394831292666	27
0	238	13382.825056120097	28
0	240	13487.593497534084	27
0	253	14309.842434093651	28
0	267	14865.339113038766	27
0	272	14876.197706828338	28
0	274	15037.696523008926	29
0	284	15528.09219909942	30
0	286	15734.418385837405	31
0	292	15992.405587334919	30
0	301	17094.57708756842	31
0	303	17102.119421929344	32
0	305	17190.708342243719	31
0	310	17241.012346073019	32
0	312	17369.390645887793	33
0	314	17456.446343236288	34
0	320	17891.276398867842	35
0	322	18368.914453102857	36
0	324	18515.642477389225	37
0	326	18540.297552098322	36
0	339	19488.232955717779	37
0	341	19502.850104470539	36
0	350	19655.66243983395	37
0	352	19675.809780470421	38
0	354	20056.445288664958	39
0	364	20435.185045856854	40
0	366	20805.201196921129	41
0	368	20898.389139658521	42
0	370	20904.306282040465	41
0	379	21802.979097750771	40
0	388	22034.886009193898	41
0	390	22150.54382228563	42
0	392	22297.068335235632	43
0	394	22333.466735087648	44
0	396	22673.955423319624	45
0	402	23106.062869180727	44
0	411	23475.064929810154	43
0	420	23823.067801047849	42
0	425	23985.764637123756	43
0	435	24264.02121954857	42
0	440	24325.910951136379	43
0	450	24810.790340631892	44
0	452	24992.112777550821	45
0	454	25157.086751712663	46
0	464	25346.629512517466	47
0	466	25400.902192008482	46
0	475	25915.163082234766	47
0	481	26392.184688422428	48
0	483	26707.101146702455	47
0	492	27141.633017959251	48
0	498	27570.373322450785	49
0	500	27647.57676905724	50
0	502	27726.249246779464	51
0	508	28187.650926981853	50
0	513	28251.645476977485	51
0	515	28459.070578660614	52
0	521	28783.956760873264	53
0	523	28824.782651635749	54
0	529	28908.730294716345	53
0	534	29127.182814428869	54
0	540	29435.696042781306	55
0	542	29573.576094712262	56
0	544	29679.85752742015	57
0	546	29768.383274643074	58
0	548	30097.247277584659	57
0	553	30233.321652536045	58
0	555	30362.839623208822	59
0	565	31116.316981758133	60
0	567	31150.828878932933	61
0	569	31214.9784380538	62
0	571	31343.885343674679	63
0	573	31499.730245195081	64
0	575	31531.98295289032	65
0	577	31553.958752241718	64
0	582	31596.691477823206	65
0	592	32041.459592446792	66
0	594	32245.681508507308	67
0	596	32288.905922447132	66
0	605	32598.995949283435	67
0	611	32983.899392586452	68
0	617	33282.797728826093	67
0	622	33338.920954435649	68
0	624	33613.569693304169	69
0	630	34043.895361169932	70
0	636	34590.837086693214	71
0	638	34711.73693911432	70
0	647	34812.012413414915	71
0	649	35363.641264301526	70
0	654	35607.636531133906	71
0	660	36070.968394054979	72
0	666	36316.145202945959	73
0	668	36563.880060734955	74
0	670	36624.152378850054	75
0	676	36931.969612923252	74
0	685	37000.776426735722	75
0	687	37483.444102432187	76
0	689	37816.760080207872	75
0	698	38519.416921299684	74
0	703	38760.191090854783	75
0	705	38809.106090778227	76
0	719	39907.727685078725	77
0	725	39970.003945504117	76
0	734	40397.363198671424	77
0	736	40642.264542293537	76
0	749	41358.65755964425	77
0	751	41475.987075951684	76
0	760	41759.901904908878	77
0	762	42135.981382911372	78
0	772	43098.33328821956	77
0	777	43104.538187375006	78
0	779	43134.881758911167	79
0	785	43584.213557072648	80
0	787	43849.624517337682	81
0	789	43849.686533591288	82
0	795	44103.181927010778	83
0	797	44156.00956851911	84
0	799	44272.448147732577	85
0	801	44328.809607283665	86
0	807	44647.223756958533	85
0	812	45237.199758987351	86
0	814	45250.467955082767	87
0	816	45442.012596477557	86
0	821	46200.390979361523	85
0	834	46467.039125916726	86
0	836	46479.995284804558	87
0	838	46540.569484134007	86
0	846	46959.867761337659	87
0	857	47072.001138194096	88
0	863	47367.325887468446	87
0	868	47488.676245168933	88
0	870	47493.204629069876	89
0	884	48167.857237103254	90
0	886	48217.387153331924	89
0	891	48270.368158255942	90
0	893	48358.290449291618	91
0	895	48476.550226148952	90
0	912	49761.140096140843	91
0	918	49995.348700134513	92
0	920	50126.85804092585	91
0	929	50636.56548165976	90
0	934	50884.92286382175	91
0	936	50953.144435633709	90
0	945	51227.585639057808	91
0	947	51639.54019456522	92
0	953	51742.662779916075	93
0	955	51846.64448083453	94
0	961	52007.634170474854	95
0	967	52109.761704281053	96
0	969	52125.935954612484	95
0	974	52129.347634416995	96
0	980	52418.734104908674	97
0	982	52867.7021426288	98
0	988	52986.390867245188	97
0	1001	53962.180198354589	98
0	1003	54243.243459139755	97
0	1012	54568.557612594058	98
0	1018	54638.20595703325	99
0	1020	54893.008955654493	98
0	1029	55784.201529969266	97
0	1038	55809.712989649647	98
0	1044	56145.274903783618	99
0	1050	56215.30943761304	100
0	1060	57126.910872668295	101
0	1062	57162.685008433452	100
0	1067	57628.675656978891	101
0	1069	57671.891143284796	102
0	1071	57694.760182400039	101
0	1076	57810.926868785875	102
0	1078	58061.566670715128	103
0	1080	58071.691479072238	104
0	1082	58382.710013811282	103
0	1087	58527.883773776849	104
0	1089	58552.250910186084	105
0	1099	58916.786596216795	106
0	1105	59231.340379168085	105
0	1114	59336.023795239082	106
0	1120	59603.52312828177	107
0	1122	59921.774513650653	108
0	1128	60289.70078007578	107
0	1137	60760.364334937352	108
0	1139	60956.735161315526	109
0	1141	61112.910628699514	110
0	1151	61294.383123715213	109
0	1156	61495.330911783934	110
0	1158	61853.886136573544	109
0	1167	62062.834935202824	110
0	1173	62177.491088782242	109
0	1178	62595.912493550889	110
0	1188	62878.91278441661	111
0	1190	62938.551948016752	112
0	1200	63290.21010443263	113
0	1202	63478.713933700958	114
0	1204	63717.576133546224	113
0	1213	64339.419031169855	114
0	1215	64435.520968722211	115
0	1221	64962.745024404306	116
0	1223	65104.05707191512	117
0	1229	65249.27832094281	116
0	1234	65348.97885895219	117
0	1236	65517.797658038609	118
0	1238	65759.660945434859	117
0	1243	65764.598331367691	118
0	1245	65993.507921386492	119
0	1259	66961.827221934488	118
0	1264	67442.136484768977	117
0	1273	67484.711796950433	118
0	1275	67493.398083420983	119
0	1277	67637.588458979777	120
0	1279	67752.858580726869	121
0	1281	67890.493042535546	122
0	1295	68935.63414425849	121
0	1300	68971.929997432909	122
0	1306	69484.03087890085	123
0	1308	69688.923863642862	124
0	1310	70028.36797874652	125
0	1316	70530.255092506102	124
0	1325	71026.523995066037	125
0	1327	71203.207042415431	124
0	1336	71813.434008509144	125
0	1338	71935.658083139085	126
0	1344	72039.40041544401	127
0	1346	72183.831474668918	128
0	1348	72289.112323422721	127
0	1357	72757.283526060003	128
0	1359	72798.230455419767	129
0	1361	72951.211459897363	130
0	1363	73018.482074574618	131
0	1365	73175.843349915418	132
0	1371	73454.916069668523	131
0	1376	73749.906942371224	132
0	1382	73953.414940016604	133
0	1384	74329.637750079791	134
0	1386	74336.312409023717	135
0	1392	74581.535000343165	136
0	1398	75084.472250540546	135
0	1403	75519.587641592778	136
0	1409	75827.465732631079	135
0	1414	76349.022760130534	136
0	1424	76796.816078212849	135
0	1429	77286.432913441948	134
0	1446	77803.841494542688	135
0	1448	77927.151166398815	134
0	1453	78333.056478214256	133
0	1462	78906.182013379585	134
0	1468	79060.76786657124	133
0	1473	79227.175452597163	134
0	1490	80145.211348024003	133
0	1504	80518.920636921702	134
0	1506	80557.023425561182	133
0	1511	80654.936349107231	134
0	1521	81640.344045472137	133
0	1526	81994.427683830697	134
0	1528	82079.972454560383	135
0	1534	82132.653458130352	134
0	1547	82408.717293388775	135
0	1549	82834.372179615912	136
0	1555	82964.035063729245	137
0	1557	83048.485346986162	138
0	1563	83262.877002072327	137
0	1572	83609.663054656975	136
0	1577	84104.737819332807	137
0	1591	84659.64107898324	136
0	1596	84846.352845075582	137
0	1602	85028.744729620211	136
0	1611	85227.53841445576	137
0	1617	85855.973058478727	138
0	1631	86235.447054405503	137
0	1636	86423.572394608773	138
0	1638	86594.207801718475	139
0	1640	86693.475719224914	140
0	1642	86918.195371191769	141
0	1648	87272.518460948758	140
0	1653	87311.415936757679	141
0	1655	87588.170169888753	142
0	1657	87686.759129551046	141
0	1662	87780.570521911803	142
0	1664	87805.054330324566	143
0	1666	87915.005664855039	144
0	1668	88057.690898415439	143
0	1677	88312.52758229092	144
0	1679	88535.976755865018	145
0	1685	88715.098432383798	146
0	1687	88823.997090753508	147
0	1693	89121.175243903689	146
0	1702	89259.290670083454	147
0	1704	89362.065208870974	148
0	1706	89470.674818952374	147
0	1723	90210.476173749995	148
0	1725	90211.580951308599	149
0	1727	90509.805881444203	150
0	1733	90910.6410964325	149
0	1738	91035.592568739765	150
0	1748	91553.018721152303	151
0	1750	91737.515624489468	152
0	1756	91801.345808778696	151
0	1761	91951.408309098549	152
0	1767	92285.37072080233	153
0	1769	92291.073430433387	154
0	1775	92628.058413221039	155
0	1781	93063.718400236957	154
0	1790	93171.343616796221	155
0	1792	93501.022607658796	154
0	1797	93554.384534398459	155
0	1799	93565.548934160635	156
0	1801	94176.164053446278	157
0	1803	94248.055660811059	156
0	1808	94401.756460441684	157
0	1814	94582.134030371327	158
0	1820	94907.588799644999	157
0	1825	94940.703944239111	158
0	1827	95080.278373201042	159
0	1829	95102.46222954284	160
0	1835	95168.88138762778	161
0	1841	95283.291665958424	162
0	1843	95491.368866947252	163
0	1849	96141.329486261774	164
0	1851	96213.361478251467	165
0	1857	96329.765118968479	164
0	1866	96569.676421510866	165
0	1872	97331.468965244944	166
0	1878	97712.937610466527	167
0	1880	97768.948040890991	168
0	1882	97860.696355339877	167
0	1891	98045.182775373608	168
0	1893	98490.859129089436	169
0	1895	98608.859247808303	170
0	1897	98862.380927731709	171
0	1899	99056.217015901176	172
0	1901	99254.535798591368	171
0	1910	99561.907094416893	172
0	1916	100022.204137207422	173
0	1918	100112.73605451076	174
0	1920	100127.7407583117	175
0	1922	100156.545395967436	176
0	1928	100409.493841242783	175
0	1937	101158.926099712665	176
0	1939	101381.21082649256	177
0	1941	101503.263165962689	176
0	1950	101584.035591567417	177
0	1952	101791.316581129164	178
0	1954	101833.972632757224	179
0	1956	101912.430663865798	178
0	1977	103291.061320056235	179
0	1979	103545.580203172558	178
0	1988	104303.824512988743	179
0	1990	104738.049283894818	180
0	1992	104758.043999087804	179
0	2001	105186.05602066321	180
0	2003	105307.955568238247	181
0	2009	106007.22242187936	182
0	2015	106353.850253497627	183
0	2017	106373.582454745465	182
0	2022	106479.97662988501	183
0	2028	107484.72367856172	184
0	2030	107511.633138364106	185
0	2036	107865.772313375765	184
0	2041	108076.893670742007	185
0	2043	108117.650837191103	186
0	2045	108334.118741636444	187
0	2051	108423.407378689278	188
0	2053	108547.587909249317	189
0	2059	108872.683623708745	190
0	2061	109030.075661738211	189
0	2070	109286.659519466995	190
0	2072	109471.802190383732	191
0	2074	109602.177327845985	190
0	2083	109760.45316489774	191
0	2089	110264.330997465615	192
0	2091	110346.794894535834	191
0	2100	110479.92452619837	192
0	2102	110786.678909021398	193
0	2108	111198.886940518655	194
0	2110	111307.743877184386	193
0	2119	111553.144564366257	194
0	2125	112142.827731382751	195
0	2127	112153.932531125014	196
0	2137	112831.541561086471	195
0	2142	113360.236067469731	196
0	2144	113475.271175074082	197
0	2150	114191.467518669362	196
0	2159	114806.095727542252	197
0	2165	115047.499753693887	198
0	2167	115380.707857483437	199
0	2173	115865.460265998538	198
0	2178	116408.081444364696	199
0	2180	117004.794841793175	198
0	2185	117150.455399470031	199
0	2191	117228.59374329631	200
0	2197	117503.911722119586	201
0	2199	117557.516378660496	200
0	2204	117720.052315242389	201
0	2206	117947.794700242975	202
0	2208	117999.772328573782	203
0	2210	118204.651230710469	204
0	2220	118833.96021033399	205
0	2222	118896.614513009965	206
0	2224	119070.874632742557	207
0	2226	119084.627615299817	206
0	2235	119468.766112498721	207
0	2245	120238.434654859815	208
0	2247	120253.571808536347	207
0	2252	120280.276679333422	208
0	2254	120315.16705982263	209
0	2260	120791.702247926485	210
0	2262	121135.950879665562	211
0	2264	121356.463667698555	212
0	2270	121709.806642394473	213
0	2272	121752.634844866391	212
0	2277	122185.788965874902	213
0	2279	122247.929212927482	214
0	2285	122401.950065028897	215
0	2287	122424.306328529144	216
0	2293	122641.913321737941	215
0	2298	122794.587349556267	216
0	2300	123121.328428736575	217
0	2302	123191.249749895926	216
0	2307	123442.886006580041	217
0	2313	123627.947266872635	218
0	2315	123733.116253775354	217
0	2320	123953.539860343628	218
0	2330	124420.029396033388	219
0	2340	124497.031629089562	220
0	2346	125315.139291019895	221
0	2348	125408.760960896309	220
0	2357	125909.172106002063	221
0	2359	126063.760508143029	222
0	2365	126664.512336390308	223
0	2367	126830.677825750313	224
0	2369	126883.192722995575	223
0	2378	127329.809805939686	224
0	2380	127393.517724250253	223
0	2385	127434.90633511733	224
0	2387	127597.900934073437	225
0	2393	127669.48106167167	224
0	2398	128037.643846735188	225
0	2408	128553.365544479523	226
0	2414	128993.783184125992	227
0	2420	129278.744206365939	226
0	2425	129496.379350892859	227
0	2431	130514.099529695507	226
0	2440	130686.943711599214	227
0	2442	130878.383835548508	228
0	2444	131155.437569343333	229
0	2454	131523.371114731473	230
0	2456	131525.799474062878	231
0	2458	131589.130729001757	230
0	2463	132184.10708056083	231
0	2469	132354.22712375276	232
0	2471	132406.428539361609	233
0	2473	132504.43643737237	234
0	2475	132539.915813852843	233
0	2480	132661.900723666972	234
0	2486	133515.641964365249	235
0	2496	133958.936206486818	234
0	2501	133966.768176574234	235
0	2503	133986.506994656776	236
0	2509	134522.087788490075	237
0	2515	135307.799963963029	236
0	2520	135354.069344849266	237
0	2526	135583.769858296163	238
0	2528	135717.181961979533	239
0	2534	136725.495750874078	240
0	2540	136944.969804671404	239
0	2545	137108.4434951288	240
0	2547	137544.399131294197	241
0	2553	137835.843725664517	242
0	2555	138021.517353402633	243
0	2557	138147.384661932287	242
0	2566	138581.68791299015	241
0	2571	138813.936465239894	242
0	2573	138853.984878559408	241
0	2578	138931.107162720373	242
0	2584	139263.332511427506	243
0	2586	139264.140841865578	244
0	2596	139484.174556470313	245
0	2606	139877.332184120389	246
0	2608	140050.296954360639	247
0	2610	140184.809576674481	248
0	2612	140525.221062016485	247
0	2621	140829.21361726365	248
0	2623	140985.614805610557	249
0	2629	141462.770351887085	250
0	2631	141801.575190466339	251
0	2637	141912.287792053817	250
0	2642	142329.66281702275	251
0	2644	142436.110322442614	252
0	2646	143008.866787034119	253
0	2652	143393.340871755777	252
0	2661	144104.66278351938	253
0	2667	144259.528143157063	252
0	2672	144369.190019747748	253
0	2678	144722.129491418725	254
0	2680	144769.374462857152	255
0	2682	144795.10694376836	256
0	2684	145042.502760228513	255
0	2689	145121.8384621751	256
0	2695	145595.710450832544	255
0	2704	145704.380620948325	256
0	2706	145781.213436779855	257
0	2708	145802.046916655391	258
0	2714	145955.433027635043	259
0	2716	145999.97824146683	260
0	2722	146568.633955864773	261
0	2724	146587.01178926731	262
0	2726	147021.356486801801	261
0	2739	147572.673915914268	262
0	2741	147903.316279452656	263
0	2743	148013.914230813084	262
0	2752	148415.830098029969	261
0	2757	148449.567160890285	262
0	2763	148651.663991737558	263
0	2765	148792.500608426486	264
0	2767	148802.948713102595	265
0	2781	149722.935295111835	266
0	2783	149771.492746409772	265
0	2788	149941.192772218094	266
0	2794	150040.12532151577	267
0	2796	150154.419729204105	268
0	2798	151184.650765557585	267
0	2807	151413.052173191331	268
0	2809	152042.940606449542	267
0	2822	152336.063236107201	268
0	2824	152568.007897907921	269
0	2826	152686.526413087544	268
0	2835	153105.205150008413	269
0	2837	153176.642285147122	270
0	2847	153645.931310032305	269
0	2856	153765.321779370911	270
0	2858	153815.880826816586	271
0	2864	154178.203103871272	272
0	2866	154406.002019953725	271
0	2871	154712.095956726407	272
0	2881	155257.942725431916	271
0	2898	156136.871965874729	270
0	2903	156799.649063844976	269
0	2912	156956.035438862196	270
0	2914	157253.536871248074	271
0	2916	157292.786538933861	272
0	2922	157773.30394432066	273
0	2924	157867.827580627135	274
0	2926	157958.945661385355	273
0	2935	158068.098788638497	274
0	2937	158204.764707550083	275
0	2947	158878.403111502448	276
0	2953	159039.383898415398	277
0	2955	159222.445228558777	276
0	2968	160477.25022100606	277
0	2970	160694.319135344352	278
0	2972	160798.127604650242	279
0	2974	160806.529467043279	278
0	2983	160949.894954213042	279
0	2985	161319.667429973183	278
0	2990	161718.152481607845	279
0	2996	162500.676092401438	280
0	3002	162568.079432976859	281
0	3008	162749.954415475114	282
0	3010	162835.000823971627	281
0	3015	163062.628228495629	282
0	3017	163152.739807145844	283
0	3019	163233.708493880845	284
0	3021	163300.380436007676	283
0	3026	163352.708086988109	284
0	3032	163629.270451416073	283
0	3037	163926.095732726021	284
0	3043	164056.229281437395	283
0	3048	164108.499652731225	284
0	3062	164524.710121405405	285
0	3076	165102.85903222056	286
0	3078	165338.240737406207	287
0	3080	165393.924745705722	286
0	3089	165954.709745845209	287
0	3091	166258.687961511832	288
0	3097	166435.615690738213	289
0	3099	166908.277081523834	288
0	3108	168076.798106162398	289
0	3110	168129.192997301961	290
0	3112	168332.147639629243	289
0	3121	168485.848501620453	290
0	3123	168530.397402754549	291
0	3125	168776.709463579913	292
0	3131	169096.750014572433	293
0	3137	169351.33420319557	292
0	3142	169353.635622908724	293
0	3144	169596.510236669802	294
0	3146	169694.471064318411	295
0	3148	169772.655546774853	296
0	3154	169954.626597662268	295
0	3159	169983.432773308126	296
0	3161	170464.102726691591	297
0	3163	170538.523554906121	298
0	3169	170700.820552866538	299
0	3171	170818.196056254072	300
0	3181	171475.081999351082	299
0	3186	171773.311778553168	300
0	3192	172399.105475184319	299
0	3201	173065.461882849035	298
0	3214	173352.15728850532	299
0	3220	173632.70488240873	300
0	3222	173789.791512575743	299
0	3227	173801.471357384827	300
0	3233	174012.680197752804	301
0	3235	174301.824772854147	300
0	3244	174459.555541307957	301
0	3246	174500.472979692511	302
0	3248	174570.022121116612	303
0	3250	175049.256970559058	302
0	3255	175095.293172134688	303
0	3261	175287.113355682593	304
0	3263	175331.759671679101	305
0	3269	175350.720796383716	306
0	3275	175615.460719273844	307
0	3277	175739.929025384455	308
0	3283	175935.809969888049	309
0	3289	176242.23922358155	308
0	3294	176290.200059933941	309
0	3300	176659.237549391386	308
0	3309	176895.604526608051	309
0	3311	177062.154437129197	308
0	3316	177587.460513425685	309
0	3326	177824.973237153885	308
0	3331	178099.339345118401	309
0	3333	178131.058961901787	310
0	3339	178332.977565855322	311
0	3349	178776.408080302429	312
0	3355	179416.186542113123	311
0	3364	179906.005452324968	312
0	3366	180232.122663155017	313
0	3372	180656.599215802548	312
0	3385	181750.268762485579	313
0	3387	182036.766272608934	312
0	3396	182767.920177630653	313
0	3398	183061.075100016592	312
0	3407	183384.602053865961	313
0	3409	183614.159801756464	314
0	3411	183640.802159343941	315
0	3413	183728.740011159058	316
0	3419	184410.921523518629	317
0	3421	184462.045899008213	316
0	3430	184781.854023088513	315
0	3435	184870.307867792893	316
0	3437	184985.733763946789	317
0	3443	185182.654203337429	316
0	3448	185457.157251287995	315
0	3453	185574.067880241825	316
0	3455	185705.913398987834	317
0	3468	186160.44940510094	316
0	3494	187290.571188716604	317
0	3496	187541.835044189403	318
0	3502	187639.023832209313	319
0	3504	187660.908395101128	318
0	3513	187952.749129865076	319
0	3515	188157.081235863964	320
0	3517	188183.327463392911	319
0	3526	188489.074106350822	320
0	3532	188767.631095268845	321
0	3534	188954.450271765604	322
0	3540	189246.231182043252	321
0	3549	189632.204346892235	320
0	3554	189772.064289825571	321
0	3556	190109.877212366303	322
0	3558	190498.085707882261	323
0	3560	190555.619858617182	324
0	3566	191099.412272922262	325
0	3572	191122.003373925385	324
0	3585	191605.842586259983	325
0	3587	191835.762788404522	324
0	3596	191952.960743844911	325
0	3598	191966.30906559136	326
0	3600	192534.426156710012	327
0	3606	192837.514008954913	328
0	3616	193365.94739769846	327
0	3621	193479.438039893651	328
0	3623	193495.406078709386	329
0	3625	193541.87876162479	330
0	3627	193543.375797533517	331
0	3629	193921.28958788961	330
0	3634	194278.397016471557	331
0	3636	194467.444761795185	332
0	3638	194819.509187583937	333
0	3644	195084.627649796007	332
0	3649	195119.626013919872	333
0	3651	195241.212135202022	334
0	3653	195365.825341496794	335
0	3659	195466.809199655319	336
0	3673	196086.764802312305	337
0	3675	196575.673434969781	336
0	3684	197023.990579365427	337
0	3686	197036.228239001718	338
0	3688	197158.654083845018	337
0	3693	197347.851456794835	338
0	3695	197378.214979391654	339
0	3697	197442.07143705026	340
0	3703	197710.945606951414	339
0	3712	198030.920326721667	338
0	3725	198112.719399779752	339
0	3727	198583.995108637452	340
0	3729	198665.630627621709	339
0	3734	198730.627422616964	340
0	3740	199090.47987839097	341
0	3750	199810.821316188699	342
0	3752	199929.998074411315	343
0	3754	200027.588716273009	342
0	3759	200032.759854059706	343
0	3761	200058.122567122796	344
0	3771	200456.349096235632	343
0	3784	200672.615240755026	344
0	3786	200734.123370752574	345
0	3788	200872.17086033225	344
0	3801	201431.309460963183	345
0	3803	201676.616338579791	346
0	3809	201863.16728645265	345
0	3814	202136.002637510967	346
0	3820	202270.320029978453	345
0	3841	203705.835732121765	344
0	3846	203965.764469170791	345
0	3852	204071.664893578592	346
0	3854	204074.372332257032	345
0	3859	204113.557458805214	346
0	3861	204181.691650434012	347
0	3863	204184.685186815306	348
0	3865	204590.204733904847	349
0	3871	205289.931442973017	348
0	3880	205456.332995272568	349
0	3894	206477.462421256124	350
0	3896	206515.423202489316	349
0	3905	206630.408182158739	350
0	3907	207540.668958987787	351
0	3909	207785.576424983143	350
0	3930	209232.632758219539	349
0	3935	210172.282753263413	348
0	3944	210575.228271501665	349
0	3946	211107.568726474024	350
0	3948	211188.876551499805	351
0	3950	211306.193359617888	350
0	3955	211350.188414820709	351
0	3965	211719.113760243286	352
0	3971	212216.818950299918	351
0	3976	212265.212875446651	352
0	3982	212702.372757230201	353
0	3984	212796.602117356657	352
0	3993	213501.840528440203	353
0	3999	213595.447204285373	354
0	4005	213903.158151396331	355
0	4007	214266.522798177599	354
0	4020	214602.173598919784	355
0	4022	215009.957946550845	354
0	4031	215518.539868408125	355
0	4033	215743.603160459956	356
0	4039	216232.613498692214	355
0	4044	216246.208345758042	356
0	4046	216300.237717444564	357
0	4052	216966.806474302709	356
0	4061	217288.585135228098	357
0	4063	217629.64272545916	358
0	4065	217788.48349341893	359
0	4075	218537.423988741636	358
0	4080	218595.381370785048	359
0	4090	219474.172552044332	360
0	4092	219768.680296216905	359
0	4101	220023.460647222653	360
0	4107	221208.284372885525	359
0	4112	221229.295859229955	360
0	4118	221467.746023510396	359
0	4127	221692.1882392989	360
0	4129	222280.155081083769	361
0	4131	222325.807668359132	362
0	4133	222360.923702320191	363
0	4139	222512.665018297471	364
0	4145	222727.148981441557	363
0	4150	222888.420703562965	364
0	4160	223775.963755618856	365
0	4166	223843.500131517117	366
0	4168	223973.32355876714	365
0	4173	224235.376260516048	364
0	4178	224238.338470922106	365
0	4180	224452.446760808413	366
0	4190	225306.724928961688	367
0	4192	225436.789282010093	368
0	4198	225562.095554309952	369
0	4200	225867.838489797712	368
0	4209	226340.520125985651	369
0	4215	226543.984805133939	368
0	4220	226711.249156101528	369
0	4222	226896.059813760317	370
0	4224	226929.535419133306	369
0	4241	228138.674934520285	370
0	4243	228185.154666399184	371
0	4249	228286.893693488643	372
0	4255	228535.72000143379	371
0	4264	229445.159069878501	372
0	4266	229497.926229995489	371
0	4275	229679.298247162706	372
0	4277	229788.715182368457	371
0	4282	229824.85773802976	372
0	4284	229826.268714970987	373
0	4290	230434.655923594534	372
0	4299	230723.089373421669	371
0	4304	231094.525842064086	372
0	4310	231181.003400884489	373
0	4316	231613.28976917814	374
0	4318	231623.648657810688	373
0	4339	232363.98517682494	374
0	4341	232431.533690703495	375
0	4347	232906.599019367993	374
0	4352	232972.887697653057	375
0	4362	233479.126235455847	376
0	4364	233736.003754925473	377
0	4366	233809.470162403584	376
0	4371	233818.831229342717	377
0	4373	233821.023011434481	378
0	4383	234763.823620702319	379
0	4389	234958.431822226795	380
0	4391	235025.030514982343	379
0	4396	235395.821626509678	380
0	4406	235857.033221234687	381
0	4412	235992.904636935188	382
0	4414	236009.292982598751	383
0	4416	236450.390304264427	382
0	4421	236526.725097700461	383
0	4423	237107.376518214033	384
0	4429	237432.59596004795	385
0	4431	237649.047918397222	386
0	4433	237786.245234359802	385
0	4442	237842.547740129484	386
0	4444	237885.18096040834	387
0	4446	238037.057403193754	388
0	4448	238068.056058672072	387
0	4457	238562.939417716978	388
0	4459	238623.681830614394	389
0	4465	239211.775822241606	388
0	4478	239584.272492713751	389
0	4480	239587.799020558069	390
0	4482	239690.756500983921	391
0	4484	239733.943988822662	392
0	4486	239745.264037672407	393
0	4488	240210.01355187297	392
0	4493	240211.675366530715	393
0	4499	240932.418244343997	392
0	4512	241122.931615155998	393
0	4514	241303.633769129218	392
0	4519	241385.044982987842	393
0	4529	241846.443313893677	392
0	4534	241915.33747012363	393
0	4536	242063.252403827133	394
0	4538	242223.377320738944	395
0	4540	242355.871426363291	394
0	4561	243510.042700379814	395
0	4563	243702.968013296814	396
0	4573	243985.403888460996	395
0	4578	244002.230566019113	396
0	4580	244070.960103296999	397
0	4594	245193.123094339671	396
0	4599	245253.563952841874	397
0	4605	246045.987806406619	396
0	4610	246087.654290954847	397
0	4612	246251.680284165093	398
0	4614	246576.611778040354	399
0	4616	246669.049026012555	400
0	4618	246709.175507389657	401
0	4624	246765.626641821863	400
0	4633	246853.502880959313	401
0	4635	247195.197075639935	402
0	4641	247421.351379501707	403
0	4643	247442.350035976776	404
0	4645	247559.035754841581	405
0	4651	247742.268257909482	406
0	4653	247857.670596013033	407
0	4655	247982.400413689019	406
0	4660	248369.704334973701	407
0	4662	248464.087496113779	406
0	4667	248482.214352690398	407
0	4673	248987.459192501463	408
0	4675	249192.872505317729	409
0	4681	249534.774964538218	408
0	4690	249885.219472637932	409
0	4696	250067.286496253793	410
0	4698	250118.464954060137	411
0	4700	250440.941910965017	412
0	4706	250849.587394271793	411
0	4715	251274.729552392664	410
0	4720	251559.073909165347	411
0	4722	251715.393710409107	410
0	4731	251984.506603347661	411
0	4744	252656.618407383136	412
0	4751	252989.639877685049	413
0	4757	253191.500011806192	412
0	4762	253383.055082109514	413
0	4768	253948.434809346499	412
0	4773	254374.282767093893	413