version 2
run Iteration-8-20200521-08:30:23-4880
attr configname Iteration
attr datetime 20200521-08:30:23
attr experiment Iteration
attr inifile omnetpp.ini
attr iterationvars "$i=9, $0=10-9"
attr iterationvarsf i=9,10-9-
attr measurement "$i=9, $0=10-9"
attr network Network
attr processid 4880
attr repetition 0
attr replication #0
attr resultdir results
attr runnumber 8
attr seedset 8
itervar i 9
param **.resourcePool.amount 9
param **.resourcePool1.amount 10-9
param **.source.interArrivalTime uniform(5s,15s)
param **.delay.delay uniform(10s,70s)
param **.delay1.delay uniform(20s,40s)
param **.allocate.resourceModuleName "\"Network.resourcePool\""
param **.allocate1.resourceModuleName "\"Network.resourcePool1\""
param **.deallocate.resourceModuleName "\"Network.resourcePool\""
param **.deallocate1.resourceModuleName "\"Network.resourcePool1\""

vector 0 Network.allocate queueLength:vector ETV
attr interpolationmode sample-hold
attr title "queue length, vector"
vector 1 Network.allocate1 queueLength:vector ETV
attr interpolationmode sample-hold
attr title "queue length, vector"
vector 2 Network.sinkStat lifeTime:vector ETV
attr interpolationmode none
attr title "lifetime of arrived jobs, vector"
attr unit s
0	0	0	0
1	0	0	0
1	25	58.978703492321	1
1	28	68.091175369918	2
1	37	80.99711072864	3
1	40	81.84673393378	4
1	46	93.231253870763	5
1	48	94.184803527314	4
1	56	102.63896497665	5
1	67	125.291933023836	4
1	75	139.872287018225	5
1	78	140.160797298887	6
1	80	145.717559496406	5
1	88	153.360022087582	6
1	94	159.676617553924	7
1	97	168.780636652373	8
1	100	169.416315464769	9
1	105	171.499060073401	8
1	110	172.245861871634	9
1	119	187.356197109913	10
1	122	194.20597691089	11
1	124	196.843602827284	10
1	132	204.14456910221	11
1	141	215.93982791761	12
1	144	219.365561339075	13
1	146	219.400717064272	12
1	154	226.430658183528	13
1	160	232.865311724601	14
1	163	235.422215175351	15
1	168	250.020511618349	14
1	179	264.414641207552	15
1	185	271.092318336016	16
1	194	288.050537644888	17
1	196	289.715500443707	16
1	201	290.008878565861	17
1	204	294.650378066583	18
1	210	300.091710018463	19
1	218	315.357115415389	18
1	223	316.078593123242	19
1	226	322.308897622865	20
1	235	330.828331704255	21
1	241	342.265451792632	22
1	246	351.378233262802	21
1	251	352.010407522324	22
1	260	364.721932266843	23
1	263	367.780990276954	24
1	269	370.800823136237	25
1	275	384.155490905981	26
1	277	385.117043338249	25
1	282	394.263853428422	26
1	291	407.159002192787	27
1	294	410.801635265819	28
1	299	416.796334211248	27
1	307	425.461119685791	28
1	310	427.77706802823	29
1	316	434.177939535587	30
1	322	442.864841062113	31
1	324	446.290612241718	30
1	332	446.658566759437	31
1	338	462.586302193816	32
1	343	477.013498332816	31
1	354	493.491711127575	32
1	357	500.795668233189	33
1	362	509.546155810821	32
1	367	512.659277557399	33
1	373	518.67901945487	34
1	379	534.58905926673	35
1	385	539.274622236847	36
1	387	542.785810108761	35
1	395	546.185838661624	36
1	398	547.384201511743	37
1	404	553.467764633244	38
1	407	556.611318839716	39
1	413	562.254060248381	40
1	415	563.053932117763	39
1	423	577.005850216376	40
1	428	586.771605720277	39
1	442	611.180803191384	40
1	445	617.077507409269	41
1	450	621.684782539959	40
1	455	629.770960551689	41
1	461	636.366562927144	42
1	467	650.005872838667	43
1	472	653.427389489951	42
1	480	657.011430177374	43
1	483	658.703435747886	44
1	488	678.195438936817	43
1	496	684.934201634025	44
1	499	685.986319612713	45
1	502	686.004639335444	46
1	510	702.26363431895	45
1	515	710.49906145083	46
1	518	710.545030639042	47
1	526	727.095637663732	46
1	531	730.893559195101	47
1	534	734.760195305572	48
1	540	741.642648791894	49
1	545	757.650114342103	48
1	553	762.659342829138	49
1	559	767.910719153005	50
1	564	786.299575197043	49
1	572	798.55407545343	50
1	575	798.882933580316	51
1	581	803.367729224264	52
1	584	803.883713963441	53
1	587	805.79136036802	54
1	595	821.567667417692	53
1	600	828.37630905211	54
1	603	828.872283068485	55
1	612	845.140417756047	56
1	618	849.811566243879	57
1	620	849.908188928382	56
1	625	852.495663154405	57
1	631	865.29886752367	58
1	639	889.850562249774	57
1	647	891.021530169528	58
1	656	914.579661404714	59
1	658	917.57658270886	58
1	666	928.460921642837	59
1	672	942.895427492913	60
1	678	950.020338592586	61
1	681	954.077906073072	62
1	684	954.986532304902	63
1	686	957.120002766604	62
1	697	967.416450562888	63
1	703	976.223829102238	64
1	705	980.37547074491	63
1	710	983.031940271612	64
1	713	986.15768663818	65
1	719	988.650140876416	66
1	728	1010.02855353523	67
1	730	1017.927869500125	66
1	738	1025.266003981232	67
1	747	1043.838683729991	68
1	750	1045.239969328977	69
1	752	1049.144720591137	68
1	763	1062.381181612145	69
1	766	1063.308791134041	70
1	772	1068.893726668321	71
1	780	1085.815700718665	70
1	785	1087.163593012374	71
1	791	1094.674146864564	72
1	794	1102.165344243404	73
1	797	1102.960781373549	74
1	803	1105.320776843	75
1	808	1119.409613867754	74
1	813	1122.324085314758	75
1	819	1125.929176337086	76
1	827	1147.970051995942	75
1	835	1155.640168515966	76
1	841	1165.661768980791	77
1	847	1168.377673749347	78
1	853	1174.04243658064	79
1	855	1176.561610486822	78
1	863	1183.313177046367	79
1	866	1185.967923889403	80
2	50	94.184803527314	46.005186792463
2	69	125.291933023836	90.276929133106
2	82	145.717559496406	119.4777253666
2	107	171.499060073401	152.65362165868
2	126	196.843602827284	183.10930879321
2	148	219.400717064272	161.99759224197
2	170	250.020511618349	181.49705346674
2	198	289.715500443707	212.16852868208
2	220	315.357115415389	217.79947906499
2	248	351.378233262802	263.60451482935
2	279	385.117043338249	281.09416016843
2	301	416.796334211248	300.75817188946
2	326	446.290612241718	308.04301643278
2	345	477.013498332816	351.94856230169
2	364	509.546155810821	352.21640150528
2	389	542.785810108761	371.7078968673
2	417	563.053932117763	386.43791098613
2	430	586.771605720277	439.26309217699
2	452	621.684782539959	416.57579184277
2	474	653.427389489951	456.32457901258
2	490	678.195438936817	495.92133388854
2	512	702.26363431895	490.32761563547
2	528	727.095637663732	474.40491963643
2	547	757.650114342103	527.37546249292
2	566	786.299575197043	564.96127245249
2	597	821.567667417692	562.65987333841
2	622	849.908188928382	605.67208701744
2	641	889.850562249774	622.61638546828
2	660	917.57658270886	620.29320282395
2	688	957.120002766604	651.63972491165
2	707	980.37547074491	705.3967467253
2	732	1017.927869500125	689.78382549481
2	754	1049.144720591137	763.4625477693
2	782	1085.815700718665	771.01066353497
2	810	1119.409613867754	763.6049669329
2	829	1147.970051995942	825.46355739002
2	857	1176.561610486822	838.62478812923

