version 2
run Iteration-49-20200521-09:53:51-70264
attr configname Iteration
attr datetime 20200521-09:53:51
attr experiment Iteration
attr inifile omnetpp.ini
attr iterationvars "$i=5, $j=4, $0=15-(5+4)"
attr iterationvarsf i=5,j=4,15-(5+4)-
attr measurement "$i=5, $j=4, $0=15-(5+4)"
attr network Network
attr processid 70264
attr repetition 0
attr replication #0
attr resultdir results
attr runnumber 49
attr seedset 49
itervar i 5
itervar j 4
param **.resourcePool.amount 5
param **.resourcePool1.amount 4
param **.resourcePool2.amount 15-(5+4)
param **.source.interArrivalTime exponential(6min)
param **.delay.delay uniform(4min,28min)
param **.delay1.delay uniform(10min,28min)
param **.delay2.delay uniform(4min,16min)
param **.allocate.resourceModuleName "\"Network.resourcePool\""
param **.allocate1.resourceModuleName "\"Network.resourcePool1\""
param **.allocate2.resourceModuleName "\"Network.resourcePool2\""
param **.deallocate.resourceModuleName "\"Network.resourcePool\""
param **.deallocate1.resourceModuleName "\"Network.resourcePool1\""
param **.deallocate2.resourceModuleName "\"Network.resourcePool2\""
param **.router.randomGateIndex "uniform(0, 1) > 0.2 ? 0 : 1"

vector 0 Network.allocate queueLength:vector ETV
attr interpolationmode sample-hold
attr title "queue length, vector"
vector 1 Network.allocate1 queueLength:vector ETV
attr interpolationmode sample-hold
attr title "queue length, vector"
vector 2 Network.allocate2 queueLength:vector ETV
attr interpolationmode sample-hold
attr title "queue length, vector"
vector 3 Network.sinkStat lifeTime:vector ETV
attr interpolationmode none
attr title "lifetime of arrived jobs, vector"
attr unit s
vector 4 Network.sink lifeTime:vector ETV
attr interpolationmode none
attr title "lifetime of arrived jobs, vector"
attr unit s
0	0	0	0
0	567	19425.259340305104	1
0	569	19558.424838717287	0
0	596	20077.78099118499	1
0	598	20114.742638399926	2
0	604	20361.689842709328	1
0	609	20402.542828614866	0
0	667	21510.140626248405	1
0	673	21756.927169035231	0
0	692	21971.512497243504	1
0	694	22032.8337381734	0
0	698	22144.021016117542	1
0	714	22391.923591516512	2
0	716	22431.984495931855	1
0	720	22494.961122857915	0
0	760	23215.94700981387	1
0	766	23363.641442159699	0
0	770	23522.89785232949	1
0	772	23564.285661156216	2
0	774	23624.331566392292	1
0	778	23633.893827930101	2
0	785	23734.10511493831	1
0	798	24004.545880228654	0
0	893	25809.040959222564	1
0	909	26058.913529823187	0
0	1033	28417.553475831343	1
0	1035	28441.045615063844	0
0	1179	31255.828164021004	1
0	1185	31371.036535273836	0
0	2059	51351.182639205405	1
0	2061	51427.806239811811	0
0	2066	51563.218382670897	1
0	2080	51727.609323408219	2
0	2086	51970.449151214381	1
0	2091	51994.878629355254	0
0	2184	53775.000135224055	1
0	2198	53990.417126837583	0
0	2302	56460.081768442632	1
0	2308	56500.171618729361	0
0	2886	73856.305111549809	1
0	2888	73873.242851896552	2
0	2890	73916.182698392213	3
0	2897	74280.119441007358	2
0	2901	74328.138556207807	1
0	2905	74453.953087607998	2
0	2925	74777.658622907033	1
0	2930	74781.212206278627	0
0	2934	74788.727945681476	1
0	2936	74973.919015999229	0
0	3137	81251.191808970715	1
0	3139	81337.065898303706	0
0	3144	81516.619811080318	1
0	3146	81637.000941208916	2
0	3148	81692.340919250167	1
0	3153	81841.881760867509	0
0	3556	90773.542353699287	1
0	3558	90791.672057114403	2
0	3560	90922.61457644507	1
0	3565	90929.845327413206	0
0	3578	91231.698112415477	1
0	3580	91294.178088720776	0
0	3859	99211.479523628142	1
0	3861	99339.925005101228	0
0	4066	105017.747303104389	1
0	4072	105169.125615470858	2
0	4074	105191.178318904689	1
0	4083	105387.127537232156	2
0	4085	105460.567082319409	1
0	4090	105609.308952332478	0
0	4316	110407.751754126045	1
0	4318	110409.293284491393	2
0	4320	110433.715574202698	1
0	4337	110650.252594097642	0
0	4846	125501.989719811978	1
0	4848	125546.638315550077	2
0	4850	125645.824920610279	1
0	4855	125762.885147702039	0
0	4860	125769.340581299271	1
0	4862	125844.8742523887	0
0	5030	130445.892201227112	1
0	5036	130589.184271328921	0
0	5059	130939.117514643136	1
0	5061	130977.001585972521	0
0	5295	136417.333772642264	1
0	5301	136429.183404059337	2
0	5303	136448.066986148915	1
0	5308	136479.308768552885	2
0	5310	136509.455932477292	1
0	5315	136524.704138588881	0
0	5462	140029.534851574157	1
0	5464	140030.95134218917	0
0	5469	140051.74515938938	1
0	5471	140079.029595788313	0
0	5476	140288.400264805903	1
0	5478	140298.921249842593	0
0	5483	140312.164558336518	1
0	5485	140629.72607844592	2
0	5487	140662.818687683158	3
0	5489	140681.869297230622	4
0	5491	140705.502816045142	3
0	5496	140761.394434498334	2
0	5500	140879.113818992814	3
0	5502	140988.819954120032	2
0	5506	140991.699123403189	3
0	5513	141290.755432974018	4
0	5520	141552.003899488343	3
0	5524	141619.207754714195	4
0	5526	141637.590315271051	5
0	5537	141690.675106050158	4
0	5545	141803.682401178727	3
0	5549	141808.991501975549	2
0	5553	141880.683055722571	1
0	5557	141883.896207496933	0
0	5566	141950.071017147405	1
0	5582	142195.37712486223	0
0	5715	145434.01315450594	1
0	5717	145449.726715405063	0
0	5752	145941.665756790273	1
0	5754	145957.315877484864	2
0	5760	146010.724080657178	1
0	5773	146198.978493540422	2
0	5775	146203.454491766111	3
0	5781	146446.617694814281	2
0	5790	146491.71399194857	1
0	5794	146698.266871762985	0
0	6064	152458.951196720245	1
0	6082	152812.560987028855	0
0	6087	152876.053254480884	1
0	6089	152893.655079799809	0
0	6120	153618.983006856428	1
0	6122	153741.208566735603	0
0	6182	154548.791834933443	1
0	6184	154636.328767112185	0
0	6435	161025.108524952516	1
0	6449	161504.257637081492	0
0	6532	163258.248849797564	1
0	6534	163427.671364560109	0
0	6774	168860.128996520233	1
0	6776	168884.464027363301	2
0	6778	168898.871659744832	3
0	6788	169128.538174270455	2
0	6793	169253.203044225756	3
0	6795	169320.250357628615	2
0	6800	169434.815908131283	1
0	6805	169494.615706607564	2
0	6807	169545.688036843006	1
0	6816	169929.166628843943	2
0	6818	169971.904879337911	1
0	6823	170064.534386263044	0
0	6844	170529.151950447165	1
0	6850	170581.88271651147	0
0	6854	170614.111515375279	1
0	6866	170994.171626570773	2
0	6868	171182.034840622272	1
0	6872	171206.848262175257	2
0	6887	171331.204330191763	1
0	6896	171362.24731346107	0
0	7053	174142.429140309401	1
0	7055	174235.73396320681	0
0	7069	174492.815952824663	1
0	7071	174496.104824946641	2
0	7073	174582.9727582418	1
0	7085	174952.494842506021	0
0	7146	175991.506961545546	1
0	7148	176041.342117547065	0
0	7156	176137.691789600207	1
0	7172	176497.083900773982	2
0	7178	176510.565375346795	1
0	7187	176575.282595069581	0
0	7201	176880.593903168844	1
0	7203	176928.145842227846	2
0	7213	177029.260878677153	1
0	7222	177064.969446709519	2
0	7224	177106.770979460478	1
0	7233	177343.871938125664	0
0	7237	177513.061471822057	1
0	7239	177556.424959893156	0
0	7577	184041.602942736966	1
0	7584	184193.70271830003	0
0	7684	186341.498973569597	1
0	7686	186374.861220923845	2
0	7693	186549.205811139753	1
0	7702	186653.500398245388	0
0	7706	186795.918261200677	1
0	7716	186900.765655335825	0
0	7741	187332.559700923488	1
0	7747	187412.821765809419	2
0	7749	187480.748818707278	1
0	7753	187530.929124728466	2
0	7760	187845.575168911896	3
0	7767	187863.182965868984	2
0	7771	187901.565738750172	1
0	7785	188048.741152235612	0
0	7801	188220.66524661104	1
0	7803	188255.564515401464	0
0	8081	193936.154465411717	1
0	8083	193946.691790729803	0
0	8599	204314.207179118764	1
0	8605	204511.946376086281	0
0	8610	204540.72640187014	1
0	8612	204561.470900356399	2
0	8614	204604.769826901103	3
0	8616	204623.525675530055	2
0	8620	204662.332253090282	1
0	8624	204718.76718290209	0
0	8876	210427.072585309398	1
0	8882	210461.701628247034	0
0	8897	210952.445846749615	1
0	8899	211069.725496754966	2
0	8901	211132.00076381736	1
0	8905	211149.782717485627	0
0	8913	211178.49453509225	1
0	8915	211238.083982276087	0
0	8935	211546.686816694279	1
0	8955	211806.974780911338	0
0	8968	212258.336025402061	1
0	8970	212326.161735574072	0
0	9035	213477.09206520832	1
0	9037	213533.387674968147	0
0	9143	215165.816889763408	1
0	9145	215227.854789561297	0
0	9158	215580.465390650408	1
0	9160	215597.443427374592	0
0	9173	215995.994074297361	1
0	9180	216158.930233318711	0
0	9844	234283.614849095193	1
0	9850	234368.35146004618	2
0	9852	234450.312344285915	3
0	9854	234468.840140849493	4
0	9864	234726.43780605007	5
0	9866	234765.107713004469	4
0	9871	234901.092814720578	3
0	9884	235330.596302546504	2
0	9893	235461.504022457303	3
0	9895	235484.09201922665	2
0	9900	235502.304165001085	3
0	9902	235516.414020761258	2
0	9906	235570.05910586369	1
0	9919	235777.019666561918	0
0	9923	235929.605185126204	1
0	9929	235984.667391948345	0
0	9933	236019.103553715078	1
0	9935	236020.562331603267	2
0	9942	236213.610631797633	3
0	9954	236490.344575188465	2
0	9962	236612.457330439488	1
0	9966	236617.957707957261	2
0	9968	236619.391821043627	1
0	9986	236984.87755762233	0
0	10111	239537.94101973255	1
0	10113	239658.071475226691	2
0	10115	239676.131403789206	1
0	10132	239903.45170792441	0
0	10485	249073.324263682901	1
0	10487	249081.795430481303	2
0	10493	249091.998251508044	1
0	10498	249113.005951039408	2
0	10500	249242.788177052447	1
0	10509	249279.029103555074	2
0	10519	249655.385644994507	1
0	10523	249733.068947052756	0
0	10545	250033.533843269261	1
0	10547	250034.580451546299	2
0	10554	250096.901122225621	1
0	10558	250199.709082440097	2
0	10565	250283.04487913487	3
0	10572	250350.346711573337	4
0	10574	250416.728212914522	3
0	10578	250432.43624190393	2
0	10582	250536.604995263559	3
0	10602	250802.849120610431	4
0	10604	250908.95552358956	3
0	10608	250910.55545007591	4
0	10618	251239.712742461064	3
0	10626	251294.797011421927	2
0	10630	251298.363645473152	1
0	10644	251526.420982879244	0
0	10648	251549.485717933364	1
0	10650	251630.676719143148	0
0	10817	255147.697281162493	1
0	10828	255333.686978546068	0
0	10854	255763.710367631468	1
0	10860	255792.706146314347	0
0	10883	256209.933667463036	1
0	10890	256282.240582598168	0
0	10904	256491.974208564136	1
0	10916	256818.914603431806	0
0	10955	257507.780632547374	1
0	10970	257666.604331756449	2
0	10972	257751.093393792246	1
0	10980	257799.192722455702	0
0	10988	257989.34727861549	1
0	10990	258030.84107992359	2
0	10997	258132.867139753983	1
0	11001	258149.873743349371	2
0	11003	258275.186441084821	3
0	11014	258481.911387931329	2
0	11018	258624.87595834187	1
0	11026	258655.401908435962	0
0	11034	258893.245129242089	1
0	11041	259050.044677906773	0
0	11573	270043.21416437998	1
0	11579	270089.055375672843	0
0	11583	270117.240023818281	1
0	11585	270133.071378955182	0
0	11594	270264.513300293066	1
0	11596	270268.992055710725	2
0	11617	270628.571117395851	3
0	11623	270722.350977101859	2
0	11627	270812.665012144878	3
0	11629	270922.884532023598	4
0	11631	270926.459120205401	3
0	11639	271048.333984046253	2
0	11643	271358.69211019634	3
0	11659	271596.665642797554	2
0	11663	271691.230858855803	3
0	11665	271712.49112102386	2
0	11669	271736.295145778927	1
0	11687	271996.772643217382	0
0	11695	272198.852731235635	1
0	11697	272295.980089693869	0
1	0	0	0
1	66	3385.756314524505	1
1	72	3645.44167770832	0
1	123	4663.058747312181	1
1	125	4677.101883886523	0
1	296	11214.526469339088	1
1	302	11235.309054058733	0
1	469	16687.928556793239	1
1	474	16815.294166992253	0
1	582	19656.370620056017	1
1	588	19926.904147985469	0
1	611	20402.542828614866	1
1	617	20546.59820372351	0
1	631	20819.703946110053	1
1	641	20964.180197353666	2
1	650	21314.740512921553	1
1	662	21492.246661179687	0
1	683	21805.27388639095	1
1	696	22032.8337381734	2
1	704	22356.154807719991	1
1	709	22360.938253152262	0
1	718	22431.984495931855	1
1	722	22494.961122857915	2
1	725	22567.04344148105	3
1	727	22726.157473693644	2
1	737	22863.699960294222	3
1	740	22883.064769209516	4
1	749	23074.241292796086	3
1	768	23363.641442159699	4
1	776	23624.331566392292	5
1	780	23666.998481732871	4
1	787	23734.10511493831	5
1	793	23944.966539505527	4
1	800	24004.545880228654	5
1	802	24014.897492206698	4
1	808	24079.859900163995	5
1	815	24331.285927121552	6
1	821	24356.228830584313	5
1	830	24436.932702773801	6
1	833	24489.159319250692	7
1	842	24956.125227971976	6
1	847	24991.005523801859	5
1	863	25276.909933509785	6
1	866	25423.716126539186	7
1	869	25426.525814890251	8
1	875	25592.795094612644	7
1	895	25838.236343381037	6
1	900	25980.233556705515	5
1	911	26058.913529823187	6
1	918	26357.170322842004	7
1	921	26486.053764787326	8
1	924	26496.594357612196	9
1	926	26595.873563588675	8
1	936	26833.620274406772	9
1	939	26872.522339447742	10
1	941	26938.347542158316	9
1	946	26957.02568585764	8
1	961	27245.738456104924	7
1	966	27264.862244912501	6
1	982	27657.440260204475	5
1	1002	28005.537133967476	6
1	1007	28130.764267743643	5
1	1012	28142.236612266903	4
1	1018	28348.430865682598	5
1	1020	28360.638444048943	4
1	1025	28398.333428802889	3
1	1037	28441.045615063844	4
1	1048	28624.518390823072	5
1	1051	28674.08970524408	6
1	1058	28766.497959652677	7
1	1063	29152.708827816959	6
1	1076	29296.847281518983	5
1	1081	29487.323848032435	4
1	1087	29495.51238993728	5
1	1090	29561.42850790626	6
1	1093	29672.968082739512	7
1	1106	30073.529915328127	6
1	1115	30175.315307652437	7
1	1117	30190.46059766564	6
1	1143	30715.953047126388	7
1	1145	30728.831287250932	6
1	1158	30883.086235959386	7
1	1160	31079.081527427813	6
1	1169	31139.520983336379	7
1	1174	31210.691921457308	6
1	1187	31371.036535273836	7
1	1190	31450.104801252444	8
1	1196	31555.802929320362	7
1	1202	31634.495481368822	8
1	1209	31735.897841676505	9
1	1218	32129.298019959669	8
1	1224	32229.832772299197	9
1	1227	32325.028083655582	10
1	1229	32498.294249535581	9
1	1234	32577.164054808798	8
1	1246	32782.114531168771	9
1	1260	33097.412229522064	10
1	1266	33133.919318345536	11
1	1268	33188.163176405233	10
1	1276	33405.619468987997	9
1	1285	33475.523666408887	8
1	1299	33930.845228781151	9
1	1309	34205.695435646024	10
1	1311	34241.998604729432	9
1	1322	34409.37693273927	8
1	1330	34535.979036758697	7
1	1336	34690.416852561145	8
1	1338	34705.246730047356	7
1	1351	34915.07837438705	8
1	1353	34930.362260171804	7
1	1362	35076.602006201184	8
1	1364	35195.03651314885	7
1	1370	35209.96719873129	8
1	1391	35770.733706579622	7
1	1397	35798.23573857816	8
1	1399	35860.256471366612	7
1	1409	36084.111877993938	8
1	1412	36189.536815375237	9
1	1418	36298.557258097115	8
1	1423	36493.144454567684	7
1	1428	36573.637430249792	6
1	1437	36750.636748350269	5
1	1466	37328.421186360521	4
1	1472	37387.21744677096	5
1	1478	37634.906911251727	4
1	1483	37707.288660873738	3
1	1493	37870.055651858292	4
1	1495	37929.778481577567	3
1	1503	38066.159565190775	2
1	1513	38305.981245710734	3
1	1522	38394.955324388401	4
1	1529	38577.061502548036	5
1	1536	38779.03975075325	6
1	1539	38827.093743716276	7
1	1541	38861.515808811072	6
1	1550	39008.775513787833	5
1	1555	39095.569404349706	4
1	1560	39116.893528302191	3
1	1579	39656.847087686029	2
1	1588	39789.745470932729	1
1	1601	39962.257342203047	2
1	1603	40182.758761819113	1
1	1612	40313.90634669092	0
1	1630	40641.341274054829	1
1	1654	41165.437459243293	2
1	1656	41218.997107396448	1
1	1664	41254.29908445575	0
1	1678	41367.657229579803	1
1	1690	41653.463888802645	0
1	1699	41982.375536951448	1
1	1709	42062.755197832907	0
1	1719	42142.103347937882	1
1	1722	42264.644213253014	2
1	1724	42299.861549895715	1
1	1732	42358.199914437763	0
1	1763	42854.323843679112	1
1	1786	43403.253286539381	2
1	1792	43799.362869927493	3
1	1795	43808.625613596547	4
1	1800	43910.034677332726	3
1	1805	43967.22478245663	2
1	1810	43992.505909116052	1
1	1816	44019.686575940195	2
1	1818	44105.593948222678	1
1	1832	44521.135917691992	2
1	1845	44908.145153939705	1
1	1850	45036.007798745283	0
1	2105	52293.166963173222	1
1	2107	52316.053456267449	0
1	2113	52448.058488940928	1
1	2127	52681.404521692713	2
1	2132	52774.699890561571	1
1	2138	53018.513049353344	2
1	2144	53034.014059869581	1
1	2150	53109.947551547112	2
1	2153	53166.123405415546	3
1	2155	53274.199599813777	2
1	2170	53617.013093542802	1
1	2200	53990.417126837583	2
1	2203	54044.234227951623	3
1	2205	54355.436786845496	2
1	2210	54452.205409273514	1
1	2216	54485.850664816955	2
1	2222	54719.615528622678	3
1	2224	54766.425305245551	2
1	2230	54806.294872957678	3
1	2240	55150.62245073964	2
1	2246	55268.560079144567	3
1	2251	55335.327860476458	2
1	2267	55746.47299741778	1
1	2273	55781.387966435267	2
1	2282	55915.872515237454	1
1	2290	56023.613430889493	0
1	2318	56590.972859776885	1
1	2321	56612.087661772307	2
1	2323	56836.386018155638	1
1	2329	56856.545137648115	2
1	2342	57149.921409988307	1
1	2350	57273.496483828979	0
1	2359	57472.489997974767	1
1	2361	57556.057165008208	0
1	2379	57715.037449816266	1
1	2381	57794.031034444921	0
1	2387	57835.963610454925	1
1	2394	58101.582742931735	2
1	2396	58159.824380040339	1
1	2405	58276.306064326812	0
1	2417	58425.774805402357	1
1	2422	58508.235026992964	0
1	2436	58757.934211116732	1
1	2438	58926.357144279576	0
1	2773	71578.452253726826	1
1	2775	71586.668368588635	0
1	2792	71876.44133082887	1
1	2806	72290.576244904046	2
1	2811	72369.460616848215	1
1	2817	72532.047788102247	2
1	2820	72596.046134105904	3
1	2828	72820.143090152615	2
1	2837	72987.254266814112	1
1	2842	72988.358849818919	0
1	2848	73002.131810629977	1
1	2850	73168.817055901227	0
1	2856	73174.821261418086	1
1	2892	74100.3659337307	0
1	2899	74280.119441007358	1
1	2903	74328.138556207807	2
1	2911	74510.365466187809	1
1	2916	74510.48651398231	0
1	2932	74781.212206278627	1
1	2938	74973.919015999229	2
1	2940	75023.357016752907	1
1	2946	75231.903345432343	2
1	2955	75387.42255260308	1
1	2969	75520.325512857666	2
1	2980	75859.074318860752	3
1	2983	76029.414485674982	4
1	2985	76035.074481397037	3
1	2990	76190.357582820138	2
1	3000	76343.326832255922	3
1	3006	76489.883806358369	4
1	3008	76563.816470570364	3
1	3017	77009.223781321912	2
1	3022	77110.17645462372	1
1	3031	77465.506189550706	0
1	3163	81899.32246641933	1
1	3166	82088.389463634706	2
1	3168	82208.071948217992	1
1	3177	82384.69980740251	2
1	3179	82715.098947952141	1
1	3185	82752.660458745631	2
1	3187	82756.866269936982	1
1	3196	82906.469795234046	0
1	3220	83334.246032155876	1
1	3222	83549.241944948408	0
1	3276	84367.575228669996	1
1	3289	84505.295781660492	2
1	3295	84854.956146911251	3
1	3300	84924.569119788903	2
1	3305	84955.530787174355	1
1	3311	85210.699284034686	2
1	3314	85274.736370495013	3
1	3320	85459.531911911231	2
1	3332	85620.101225936964	1
1	3342	85739.092521610597	2
1	3347	85955.493032865923	1
1	3353	85968.796801130244	2
1	3356	86138.190160504647	3
1	3368	86440.786635998815	2
1	3377	86582.441696809802	1
1	3383	86619.563439473008	2
1	3386	86810.940914447016	3
1	3392	86925.940889289391	2
1	3400	86957.154617559862	1
1	3405	87187.94760161658	0
1	3415	87500.933604736408	1
1	3418	87501.400326038011	2
1	3430	87725.051969217315	1
1	3444	87924.989535668705	2
1	3450	88352.283544560683	1
1	3458	88581.150041277286	0
1	3494	89170.273184787892	1
1	3500	89401.840323351112	0
1	3590	91366.214875003256	1
1	3597	91526.114196368602	2
1	3599	91597.357921390359	1
1	3609	91661.792859225099	2
1	3621	92311.733382283275	1
1	3626	92537.913234318716	0
1	3632	92558.29116115073	1
1	3637	92746.362263955064	0
1	3643	92801.032305947633	1
1	3645	92820.891717847467	0
1	3651	92825.143843781091	1
1	3654	92922.45724383768	2
1	3664	93162.255187290286	1
1	3669	93225.088643339572	0
1	3867	99557.702152051199	1
1	3873	99599.35740917116	2
1	3875	99608.156298744389	1
1	3880	99631.721822030057	0
1	3886	99859.56510470964	1
1	3888	99883.561266345269	0
1	3894	99883.880766067803	1
1	3912	100522.903140271643	0
1	3918	100550.54411819928	1
1	3920	100576.828405696113	0
1	4111	106083.819908024719	1
1	4114	106115.837042035621	2
1	4117	106259.883099332823	3
1	4122	106331.346068509858	2
1	4131	106598.155123297126	3
1	4138	106729.193382318148	4
1	4140	106782.383611978963	3
1	4145	106850.498693594685	2
1	4150	107048.984196388856	1
1	4156	107097.026311920028	2
1	4170	107781.016584082681	3
1	4172	107805.944927536886	2
1	4177	107806.236986592388	1
1	4186	108003.148561151698	0
1	4198	108273.513373844469	1
1	4203	108614.038917625085	0
1	4216	108707.927865574189	1
1	4229	108824.320772306066	0
1	4235	108843.941591773365	1
1	4238	108938.43652638841	2
1	4244	109120.45691140925	1
1	4256	109517.535813234509	0
1	4262	109615.70470773573	1
1	4264	109639.05830492638	0
1	4288	110184.915025859471	1
1	4301	110301.420560967177	0
1	4343	110687.064628477274	1
1	4345	110755.523396452499	0
1	4362	111001.788432953518	1
1	4369	111219.889189086048	2
1	4371	111303.292497316375	1
1	4377	111321.716999330815	2
1	4383	111510.634605340826	3
1	4386	111534.992465200985	4
1	4395	112014.354861363768	3
1	4400	112097.723473004636	2
1	4405	112103.265976395068	1
1	4416	112224.810661242468	0
1	4430	112451.053202869768	1
1	4433	112528.219451136057	2
1	4450	113013.611439524057	3
1	4452	113023.090210260463	2
1	4458	113111.91955731374	3
1	4460	113272.263745834661	2
1	4466	113278.308168693635	3
1	4472	113602.675165158821	2
1	4478	113629.226392708974	3
1	4480	113632.837179297581	2
1	4485	113642.233435736609	1
1	4494	114279.045391387431	0
1	4625	117149.381833935312	1
1	4627	117199.594732725393	0
1	4652	117828.402561587073	1
1	4655	117831.428483693962	2
1	4665	118166.799659020947	1
1	4670	118175.538035321381	0
1	4864	125844.8742523887	1
1	4866	125931.114330344522	0
1	4880	126151.90765094988	1
1	4883	126305.667104572743	2
1	4890	126411.579632772782	3
1	4895	126567.338076122791	2
1	4907	126711.443779204661	1
1	4912	126809.232310779483	0
1	4918	126921.967869248331	1
1	4920	126954.062037996892	0
1	5079	131543.579090817318	1
1	5084	131600.272132075873	0
1	5097	131893.122215581152	1
1	5102	132027.978995453053	0
1	5108	132065.362446789818	1
1	5111	132099.190324143345	2
1	5114	132145.129377229723	3
1	5119	132247.546469182968	2
1	5131	132352.334548098061	1
1	5141	132598.047400946012	2
1	5144	132657.008441837254	3
1	5147	132659.124502774477	4
1	5155	132990.171137220644	3
1	5161	133011.329678745173	4
1	5168	133179.096107919606	5
1	5174	133256.014984931347	4
1	5183	133604.522930090576	3
1	5188	133652.96015618651	2
1	5193	133684.863055712961	1
1	5203	133900.80467115849	2
1	5223	134846.811541497258	1
1	5228	134947.897360708051	0
1	5272	135852.073432221811	1
1	5277	135996.235685536124	0
1	5317	136524.704138588881	1
1	5323	136655.965206913136	0
1	5352	137260.70474581953	1
1	5354	137315.424356885057	0
1	5392	137978.234081336138	1
1	5398	138104.290370788228	0
1	5498	140761.394434498334	1
1	5504	140988.819954120032	2
1	5508	140997.162990664808	1
1	5515	141453.998306969503	0
1	5522	141552.003899488343	1
1	5532	141690.496057344086	0
1	5539	141690.675106050158	1
1	5547	141803.682401178727	2
1	5551	141808.991501975549	3
1	5555	141880.683055722571	4
1	5559	141883.896207496933	5
1	5561	141933.728304111815	4
1	5568	142071.366465630332	3
1	5573	142083.353391915305	2
1	5584	142195.37712486223	3
1	5587	142298.381890727529	4
1	5593	142559.237927615128	3
1	5599	142763.461066432706	4
1	5601	142826.558324525455	3
1	5611	142921.335517067207	4
1	5617	142967.572085109956	3
1	5623	143086.889626944149	4
1	5636	143476.775439081199	3
1	5641	143564.46315356691	2
1	5647	143652.669295759356	3
1	5660	144043.777816163698	2
1	5672	144583.656488067887	1
1	5681	144810.887187311171	0
1	5723	145461.640135972098	1
1	5734	145538.112645963291	2
1	5736	145569.999446587122	1
1	5741	145613.551959098993	0
1	5762	146010.724080657178	1
1	5768	146086.77350225646	0
1	5792	146491.71399194857	1
1	5796	146698.266871762985	2
1	5799	146737.849126588585	3
1	5801	146853.889162048443	2
1	5806	146972.026992344714	1
1	5824	147339.47895398707	2
1	5826	147475.432301108317	1
1	5831	147475.574558198191	0
1	5837	147516.520751980656	1
1	5840	147726.30257116683	2
1	5847	148022.505345084871	3
1	5856	148157.175731865435	2
1	5861	148196.822400696061	1
1	5866	148260.92885910321	0
1	5884	148476.679915167055	1
1	5890	148764.800121115919	2
1	5893	148785.098642104129	3
1	5900	148845.687744098122	4
1	5910	148959.485661257581	3
1	5915	149212.494236442931	2
1	5920	149270.319598616778	1
1	5929	149295.00578708709	0
1	5935	149335.531831921067	1
1	5948	149972.985414325886	2
1	5954	150032.072407920436	1
1	5960	150143.972940638299	2
1	5962	150205.226473424069	1
1	5984	150819.536923456676	0
1	6010	151261.91886229124	1
1	6013	151403.808443239653	2
1	6015	151439.639347714789	1
1	6023	151577.791851060988	0
1	6029	151706.803314713175	1
1	6037	152057.485290037207	0
1	6099	153184.611521664092	1
1	6101	153272.352092263959	0
1	6173	154291.052444772091	1
1	6186	154636.328767112185	2
1	6188	154718.318766954917	1
1	6198	154857.353593531169	2
1	6201	155028.217977426208	3
1	6203	155066.363492031354	2
1	6208	155200.909039211564	1
1	6214	155248.499094282755	2
1	6216	155303.9333773729	1
1	6225	155390.1107808414	2
1	6239	155683.123970388997	1
1	6245	155687.867870169654	2
1	6255	155975.317822583723	1
1	6260	155980.955323059911	0
1	6266	156121.17932365978	1
1	6275	156485.036459528946	0
1	6281	156619.632938928581	1
1	6287	157095.638470967072	0
1	6459	161691.727482604348	1
1	6462	161875.039460870441	2
1	6465	161933.752846089947	3
1	6467	162083.734994226972	2
1	6473	162285.239729598105	3
1	6482	162489.851623346732	2
1	6497	162875.916196923869	1
1	6505	163095.68255575915	0
1	6536	163427.671364560109	1
1	6539	163520.729234210699	2
1	6542	163619.567627451664	3
1	6544	163633.40770488249	2
1	6550	163696.044547683876	3
1	6552	163717.655617579723	2
1	6561	163825.982308582161	1
1	6570	164049.54356714693	0
1	6576	164095.024226507267	1
1	6579	164268.846492996543	2
1	6589	164704.650797346773	1
1	6598	164792.169543741176	0
1	6673	166067.344152045016	1
1	6675	166207.016368511059	0
1	6692	166875.209241341465	1
1	6695	166878.525486009464	2
1	6697	166889.814221563675	1
1	6702	166934.996515954225	0
1	6825	170064.534386263044	1
1	6828	170088.652989614586	2
1	6831	170147.896591508746	3
1	6836	170381.371987691896	2
1	6852	170581.88271651147	3
1	6856	170706.466757870373	2
1	6861	170806.477655763541	1
1	6870	171182.034840622272	2
1	6874	171310.423126392801	1
1	6889	171331.204330191763	2
1	6891	171336.047818136217	1
1	6898	171362.24731346107	2
1	6901	171365.108720270079	3
1	6903	171444.67707288554	2
1	6912	171631.495666542377	3
1	6918	171718.44787822551	2
1	6928	171806.485942910039	3
1	6938	171895.20948459986	4
1	6943	171990.828702389066	3
1	6948	172041.244970836492	2
1	6969	172317.053799150504	3
1	6972	172420.205552295597	4
1	6978	172691.401451094811	5
1	6985	172870.874211456118	6
1	6987	172909.596883376223	5
1	6993	173054.03303479498	6
1	6996	173077.489610168502	7
1	7001	173216.729982862984	6
1	7006	173225.27147568277	5
1	7019	173546.910255468545	4
1	7024	173699.054871170597	3
1	7057	174235.73396320681	4
1	7059	174351.794398841252	3
1	7064	174452.814927617823	2
1	7075	174582.9727582418	3
1	7087	174952.494842506021	4
1	7089	175174.583529635427	3
1	7094	175221.919731979074	2
1	7100	175265.079158889519	3
1	7103	175339.491032526699	4
1	7106	175345.068863636312	5
1	7108	175510.949851139252	4
1	7113	175571.323206056645	3
1	7119	175678.42485140304	4
1	7135	175938.774253168238	3
1	7150	176041.342117547065	4
1	7158	176197.188199288016	3
1	7167	176305.953825271504	2
1	7180	176510.565375346795	3
1	7182	176570.096152699356	2
1	7189	176575.282595069581	3
1	7192	176599.819975032479	4
1	7215	177029.260878677153	5
1	7217	177051.455553528947	4
1	7226	177106.770979460478	5
1	7228	177166.51071577779	4
1	7235	177343.871938125664	5
1	7241	177556.424959893156	6
1	7244	177571.322387006238	7
1	7249	177638.139146004619	6
1	7263	177831.632580418289	7
1	7266	177839.333331865272	8
1	7268	178005.424703960111	7
1	7280	178090.13664447805	6
1	7293	178463.364912340706	7
1	7295	178469.613404205816	6
1	7301	178586.630024353647	7
1	7304	178589.977697129179	8
1	7307	178609.998494000608	9
1	7309	178656.685412167376	8
1	7324	179042.272862787163	7
1	7329	179076.003972404731	6
1	7334	179079.223661121728	5
1	7351	179785.569936921841	6
1	7357	179850.374354985347	5
1	7363	179909.57642612946	6
1	7373	179932.994657479963	5
1	7385	180170.25273920921	6
1	7388	180238.896077840447	7
1	7394	180549.164431723571	6
1	7399	180567.480325634686	5
1	7408	180741.113835290821	4
1	7414	180766.486396492936	5
1	7416	180944.840222312873	4
1	7429	181201.957605184151	3
1	7435	181208.827897416572	4
1	7454	181629.717196808001	3
1	7469	181999.773654528989	2
1	7474	182015.267851264021	1
1	7480	182205.024753386082	2
1	7487	182253.959535560451	3
1	7489	182257.868215010317	2
1	7498	182628.81633111629	3
1	7500	182645.064131510249	2
1	7510	182762.142036526248	3
1	7516	182844.624661155781	2
1	7530	183114.371477600541	3
1	7532	183183.54090556605	2
1	7538	183206.586234413797	3
1	7546	183645.272225797913	2
1	7561	183845.679273285719	1
1	7579	184186.20501516833	0
1	7586	184193.70271830003	1
1	7589	184197.939650709401	2
1	7596	184301.715838307054	3
1	7599	184304.479975042019	4
1	7611	184845.437788861899	3
1	7616	185023.368724002308	2
1	7621	185066.247087563193	1
1	7626	185144.672554681825	0
1	7635	185320.47343390181	1
1	7642	185411.158485204277	2
1	7656	185741.248303634331	3
1	7668	186111.279204212865	2
1	7674	186189.790385920966	3
1	7676	186205.396280466674	2
1	7688	186423.391143590948	1
1	7695	186549.205811139753	2
1	7697	186570.712701787057	1
1	7704	186653.500398245388	2
1	7718	186900.765655335825	3
1	7721	187038.892599639231	4
1	7731	187164.174762056817	5
1	7736	187258.22827987819	4
1	7751	187480.748818707278	5
1	7755	187661.821287737044	4
1	7762	187850.824881532325	3
1	7769	187863.182965868984	4
1	7773	187901.565738750172	5
1	7775	187962.203633398554	4
1	7780	188027.154643586641	3
1	7787	188048.741152235612	4
1	7805	188255.564515401464	5
1	7808	188442.07567406622	6
1	7811	188442.332480405083	7
1	7817	188629.938842618002	6
1	7822	188717.817423573511	5
1	7828	188853.318034955606	6
1	7845	189275.753860912381	5
1	7851	189302.783986662369	6
1	7857	189366.730012727452	7
1	7859	189447.171540145578	6
1	7867	189546.840295125535	5
1	7873	189592.80001219022	6
1	7875	189607.880475926018	5
1	7890	190052.217231365947	4
1	7895	190071.37512416281	3
1	7905	190225.276145330295	4
1	7908	190273.032914927979	5
1	7918	190393.460378101832	4
1	7931	190666.298842203607	5
1	7933	190693.953322126625	4
1	7947	190900.811509685482	5