version 2
run Iteration-65-20200521-09:55:04-71620
attr configname Iteration
attr datetime 20200521-09:55:04
attr experiment Iteration
attr inifile omnetpp.ini
attr iterationvars "$i=7, $j=3, $0=15-(7+3)"
attr iterationvarsf i=7,j=3,15-(7+3)-
attr measurement "$i=7, $j=3, $0=15-(7+3)"
attr network Network
attr processid 71620
attr repetition 0
attr replication #0
attr resultdir results
attr runnumber 65
attr seedset 65
itervar i 7
itervar j 3
param **.resourcePool.amount 7
param **.resourcePool1.amount 3
param **.resourcePool2.amount 15-(7+3)
param **.source.interArrivalTime exponential(6min)
param **.delay.delay uniform(4min,28min)
param **.delay1.delay uniform(10min,28min)
param **.delay2.delay uniform(4min,16min)
param **.allocate.resourceModuleName "\"Network.resourcePool\""
param **.allocate1.resourceModuleName "\"Network.resourcePool1\""
param **.allocate2.resourceModuleName "\"Network.resourcePool2\""
param **.deallocate.resourceModuleName "\"Network.resourcePool\""
param **.deallocate1.resourceModuleName "\"Network.resourcePool1\""
param **.deallocate2.resourceModuleName "\"Network.resourcePool2\""
param **.router.randomGateIndex "uniform(0, 1) > 0.2 ? 0 : 1"

vector 0 Network.allocate queueLength:vector ETV
attr interpolationmode sample-hold
attr title "queue length, vector"
vector 1 Network.allocate1 queueLength:vector ETV
attr interpolationmode sample-hold
attr title "queue length, vector"
vector 2 Network.allocate2 queueLength:vector ETV
attr interpolationmode sample-hold
attr title "queue length, vector"
vector 3 Network.sink lifeTime:vector ETV
attr interpolationmode none
attr title "lifetime of arrived jobs, vector"
attr unit s
vector 4 Network.sinkStat lifeTime:vector ETV
attr interpolationmode none
attr title "lifetime of arrived jobs, vector"
attr unit s
0	0	0	0
0	2100	48719.079846133409	1
0	2111	49011.443647051439	0
0	3229	75869.965611837436	1
0	3240	76021.757808262892	2
0	3242	76090.456185837556	1
0	3260	76452.929614613141	0
0	3370	79275.5832743137	1
0	3377	79303.802402457214	2
0	3379	79398.499591718818	1
0	3383	79412.059640476566	0
0	3392	79684.866328548644	1
0	3394	79702.931888502073	0
0	5414	127536.863350223745	1
0	5421	127595.140712165079	0
0	7324	174429.651893693727	1
0	7326	174469.710616542558	0
0	7935	187993.99002529548	1
0	7945	188202.893624221235	2
0	7947	188332.022807348751	1
0	7951	188446.858796057193	0
0	8340	197739.641048778789	1
0	8342	197953.712712810373	0
0	9961	242278.626139552377	1
0	9963	242283.511644851246	2
0	9965	242285.963402321407	3
0	9967	242382.167484231133	2
0	9976	242468.086122757868	1
0	9980	242525.397540186652	2
0	9982	242548.931260287116	3
0	9989	242721.034923878268	2
0	10001	243020.787930762933	3
0	10003	243036.337379735657	2
0	10007	243124.108462810356	1
0	10011	243178.700737825812	2
0	10013	243222.007396387715	3
0	10015	243297.46119367722	4
0	10017	243359.833819694872	3
0	10021	243385.680284526993	4
0	10023	243411.704097948364	3
0	10027	243426.547323459998	2
0	10040	243453.888741169819	1
0	10054	243605.217447720308	0
1	0	0	0
1	50	2072.495348260012	1
1	57	2184.284545425169	2
1	63	2305.790446049565	3
1	66	2536.765046734726	4
1	71	3035.638091465523	3
1	83	3159.964792078377	4
1	85	3219.171771319583	3
1	90	3244.589446102868	2
1	96	3294.411226896916	3
1	106	3637.290502316502	4
1	118	3804.438854366606	3
1	124	3888.725979090117	4
1	127	3898.026460202641	5
1	144	4393.821802027055	6
1	146	4472.167884182185	5
1	151	4506.641143271367	4
1	167	4935.619196066461	5
1	170	5015.261228791358	6
1	176	5287.188911996568	7
1	179	5313.211350775052	8
1	181	5361.780809973965	7
1	186	5394.401208305797	6
1	192	5402.776017965168	7
1	205	5798.064813656733	6
1	211	5825.40660588854	7
1	217	5871.822485999116	8
1	219	5994.113170308659	7
1	224	6108.65567307367	6
1	252	6757.497178450323	7
1	260	6993.851685678587	6
1	265	7000.879294555301	5
1	271	7163.913554780079	6
1	278	7446.698019847413	7
1	290	7714.46541515558	6
1	296	7852.713649558993	7
1	301	7952.179638488219	6
1	307	7965.165056162351	7
1	310	7978.871593058321	8
1	313	8217.83935809223	9
1	316	8231.773397108548	10
1	319	8245.47780913225	11
1	324	8606.023658696563	10
1	329	8611.311002112592	9
1	351	9068.078161658784	8
1	360	9112.994045150549	9
1	362	9244.490032819698	8
1	386	9585.531307382282	9
1	389	9697.232317077891	10
1	396	9914.114300247868	11
1	399	10138.66684239576	12
1	401	10152.744388039822	11
1	406	10161.53504077904	10
1	414	10241.504453145032	9
1	420	10356.064734961257	10
1	437	10803.046840151213	11
1	439	10806.991975368933	10
1	444	10907.390252109284	9
1	452	11015.389379527484	8
1	458	11018.122624195349	9
1	461	11032.283977636254	10
1	476	11743.836669030146	11
1	485	12011.744446912447	10
1	490	12191.526484362845	9
1	499	12304.278992844267	10
1	501	12422.227127250285	9
1	511	12519.184474686382	10
1	517	12677.203016540924	11
1	537	13070.772393929431	12
1	539	13212.906929863681	11
1	544	13405.206938149409	10
1	549	13424.021832467655	9
1	555	13545.385168936562	10
1	558	13627.474188106735	11
1	561	13628.638552046061	12
1	587	14690.602182903925	11
1	595	14783.83991533338	10
1	601	14851.762333182097	11
1	603	14987.050382444637	10
1	609	14997.246690579755	11
1	612	15065.292278676448	12
1	618	15251.370979958185	13
1	632	15657.570046210664	12
1	637	15701.928419964055	11
1	649	16023.974356823916	12
1	655	16275.085487063977	11
1	664	16309.546791253676	10
1	670	16422.729555310826	11
1	673	16569.96003534326	12
1	675	16590.338526051159	11
1	687	17132.27531787387	10
1	692	17149.456253690648	9
1	702	17239.871175532665	10
1	709	17503.514098860024	11
1	734	18025.372465275292	10
1	739	18120.916934251788	9
1	744	18137.353033581416	8
1	757	18491.245600828432	9
1	768	18723.213125139218	10
1	771	18762.377989239846	11
1	773	18801.295935092161	10
1	779	18845.907936850196	11
1	781	18856.673541957577	10
1	787	18895.137429753245	11
1	790	18944.719820781093	12
1	792	18953.813472507524	11
1	812	20084.294155388738	10
1	823	20175.252232901755	9
1	828	20417.034768484597	8
1	846	20663.369953000915	9
1	855	20915.850329259078	8
1	861	20978.940393679127	9
1	868	21101.271337380894	10
1	871	21104.985756949244	11
1	877	21230.423969127302	10
1	887	21250.957615458028	11
1	893	21301.068049563428	12
1	896	21556.884754159198	13
1	902	21663.094251589853	12
1	907	21666.277384236123	11
1	916	21722.612917516973	12
1	919	21890.847473064986	13
1	932	22834.271159492497	12
1	938	22912.768268896726	13
1	940	22937.977945894006	12
1	945	23065.028381431143	11
1	967	23657.347562709826	10
1	973	23981.103677523498	11
1	975	23995.722842756327	10
1	984	24051.525683378865	9
1	993	24156.986373833266	10
1	999	24446.709490992132	9
1	1018	24879.105098759388	10
1	1029	25176.386120569667	11
1	1032	25266.490660764911	12
1	1035	25340.834125958315	13
1	1037	25454.302936074924	12
1	1042	25628.062769159739	11
1	1054	26086.765201013539	10
1	1060	26099.254641749685	11
1	1063	26138.550763886867	12
1	1065	26221.297772088688	11
1	1080	26517.011996241351	10
1	1096	26943.942278461535	9
1	1104	27127.541283256974	8
1	1114	27178.119268023902	9
1	1123	27237.874594631451	10
1	1140	27682.108890001103	11
1	1142	27739.678300758492	10
1	1148	27747.890107429259	11
1	1150	27766.345370974456	10
1	1156	27793.590800953034	11
1	1158	27916.569851707671	10
1	1164	28053.210619689461	11
1	1167	28061.95112851286	12
1	1177	28120.282537569305	13
1	1180	28213.115199113628	14
1	1182	28373.384991310601	13
1	1198	28628.045447895845	14
1	1204	28689.320018998947	13
1	1220	29028.120614927177	14
1	1222	29028.498671740297	13
1	1227	29062.098004141887	12
1	1237	29205.225496062768	13
1	1240	29270.167555148906	14
1	1246	29887.399848056626	13
1	1255	30012.730817388808	12
1	1261	30052.940201364728	13
1	1270	30493.696910362694	12
1	1279	30739.525657126054	13
1	1291	31074.593760822033	12
1	1310	31436.727025580567	13
1	1316	31550.244273487147	12
1	1322	31565.205465515761	13
1	1325	31627.956808929243	14
1	1328	31660.151425389157	15
1	1330	31722.40195881023	14
1	1341	32006.967100320387	13
1	1355	32252.882370522192	14
1	1358	32647.537177700972	15
1	1361	32675.469469685075	16
1	1363	32678.095797445628	15
1	1368	32708.509101871466	14
1	1374	32756.295827148586	15
1	1384	33112.550238258805	14
1	1400	33775.509272845847	15
1	1418	34064.77564282163	14
1	1427	34239.325916254871	15
1	1429	34254.935945604	14
1	1435	34439.811093327019	15
1	1437	34473.997990293097	14
1	1443	34507.888616660568	15
1	1449	34641.346213741287	16
1	1465	34872.248789252778	15
1	1470	35157.600798997697	14
1	1475	35173.964930322025	13
1	1484	35204.961337651175	14
1	1487	35311.977062056404	15
1	1512	35602.49547073598	16
1	1521	35938.568180259162	17
1	1527	36093.538766427793	18
1	1530	36101.56357059174	19
1	1533	36138.301930005841	20
1	1535	36153.741170805012	19
1	1540	36199.12188621797	18
1	1546	36251.607049958651	19
1	1549	36361.994758159516	20
1	1552	36417.491608417939	21
1	1554	36524.820500462916	20
1	1560	36547.306007351852	21
1	1565	36868.46162855253	20
1	1584	37171.847810385813	19
1	1594	37348.031004840685	20
1	1597	37543.913930775087	21
1	1603	37712.499452434484	20
1	1608	37757.026718295779	19
1	1624	37837.64700788361	20
1	1633	38222.855304502015	19
1	1643	38364.11036670872	20
1	1651	38886.478652897891	19
1	1662	39086.267283238474	18
1	1672	39139.668760017538	19
1	1674	39190.526397641813	18
1	1684	39227.432684400824	19
1	1690	39726.937363386158	18
1	1696	39736.463845180723	19
1	1704	40034.164527021017	18
1	1709	40088.015440352326	17
1	1723	40299.200763645016	18
1	1726	40494.820083176804	19
1	1729	40545.253208286436	20
1	1738	40710.862914746692	19
1	1754	41072.646622771302	20
1	1760	41210.767819229182	19
1	1768	41269.491638369862	18
1	1774	41329.14490710263	19
1	1777	41468.568906343509	20
1	1787	41694.426410636487	21
1	1793	41923.083950277422	20
1	1799	42013.27910358037	21
1	1801	42085.343996308809	20
1	1813	42342.424470056629	21
1	1816	42419.241673528574	22
1	1819	42552.286392294056	23
1	1834	42837.149254446518	22
1	1846	43119.674300389369	21
1	1852	43138.243746120017	22
1	1858	43437.473730945906	23
1	1860	43662.529285172066	22
1	1875	43851.884525489067	21
1	1881	43910.635230992611	22
1	1892	44221.707526598937	23
1	1897	44370.513096730825	22
1	1907	44397.642001088974	23
1	1912	44488.268010500823	22
1	1918	44490.80067682279	23
1	1920	44702.815098859435	22
1	1934	45052.799790549365	23
1	1944	45454.627514380192	24
1	1953	45733.881599616214	25
1	1956	45756.777597959715	26
1	1958	45885.7338901699	25
1	1964	45928.294185694383	26
1	1966	46007.155937790875	25
1	1977	46158.232761131665	24
1	1990	46462.960385195022	25
1	2000	46629.36574389786	24
1	2012	47056.353900216441	25
1	2015	47127.131957897753	26
1	2022	47294.849289394916	27
1	2025	47300.867288847719	28
1	2027	47320.206049978402	27
1	2036	47545.10258904754	28
1	2038	47556.980750994762	27
1	2044	47586.924740628847	28
1	2046	47762.048254827103	27
1	2065	48372.676952471626	26
1	2073	48467.712181141605	25
1	2088	48652.823146166346	24
1	2106	48978.839985076008	23
1	2113	49011.443647051439	24
1	2116	49081.204861163937	25
1	2119	49122.670656004063	26
1	2127	49361.880788387797	25
1	2137	49431.887534850647	26
1	2140	49701.431840855533	27
1	2142	49734.329784670515	26
1	2151	49857.137554004794	25
1	2157	49911.484629823573	26
1	2160	49928.121953958924	27
1	2163	49963.104857050271	28
1	2169	50290.631013175502	29
1	2180	50581.509001272008	30
1	2186	50674.172200983457	29
1	2201	51278.037220040342	28
1	2206	51367.987759327186	27
1	2215	51517.950257245904	28
1	2218	51665.641016941712	29
1	2224	51996.245000626959	28
1	2230	52069.916662113273	29
1	2236	52437.230409789836	28
1	2241	52477.795326532466	27
1	2250	52529.932695792373	28
1	2262	53120.761296987539	27
1	2275	53258.742479927905	26
1	2281	53300.464664657252	27
1	2287	53419.370681434861	28
1	2294	53485.317480915114	29
1	2296	53513.636536989031	28
1	2305	53640.518091785573	29
1	2308	53993.134997072061	30
1	2318	54416.717324163435	29
1	2323	54449.752545828005	28
1	2332	54888.833845485069	27
1	2344	55179.558233804671	26
1	2356	55328.344747513538	25
1	2368	55996.156807629459	24
1	2378	56061.26045986275	25
1	2384	56190.655209239041	26
1	2386	56399.743586191578	25
1	2394	56771.929287236189	24
1	2404	56846.164603117365	25
1	2407	56904.084135235619	26
1	2409	57025.549202229895	25
1	2442	57677.05738318771	26
1	2444	57721.02852023766	25
1	2453	57763.534029394587	26
1	2456	57808.439868364545	27
1	2459	57861.242668486943	28
1	2461	58046.627737097113	27
1	2466	58060.900735197656	26
1	2482	58383.924646903002	27
1	2487	58525.678876709199	26
1	2497	58690.113583031919	27
1	2504	58757.67186870419	28
1	2513	58968.688984602163	29
1	2516	58999.236138162976	30
1	2518	59027.154777081751	29
1	2524	59123.000692509685	30
1	2536	59207.36765006068	31
1	2542	59592.906762798919	30
1	2555	59763.181874329984	31
1	2558	59874.275045990828	32
1	2568	60031.142079031199	33
1	2570	60168.316857224336	32
1	2575	60236.296107949757	31
1	2584	60512.481938165631	32
1	2594	61042.679672194316	31
1	2599	61043.930982280591	30
1	2607	61146.618452701723	29
1	2613	61264.147278590712	30
1	2620	61595.102211731592	31
1	2629	61809.946893071427	30
1	2635	61839.434859589656	31
1	2637	61979.073587855393	30
1	2653	62416.728750798857	29
1	2659	62457.046736163498	30
1	2676	62738.676512900006	31
1	2679	62903.312647830949	32
1	2681	63060.438446243896	31
1	2687	63152.433871564714	32
1	2689	63161.96673907719	31
1	2695	63282.015112162175	32
1	2705	64028.945042822516	31
1	2713	64201.683941147893	30
1	2722	64365.463104084203	29
1	2740	64864.586739191792	28
1	2750	65250.259630860862	29
1	2752	65425.855962717577	28
1	2761	65538.554866682437	29
1	2764	65592.734260196912	30
1	2766	65640.547319674871	29
1	2772	65745.375680577182	30
1	2778	65767.86878548942	29
1	2794	66041.639826316893	30
1	2796	66114.167533348917	29
1	2812	66638.842936154462	28
1	2826	67134.366951489845	29
1	2832	67339.851926241216	30
1	2834	67348.27864421911	29
1	2840	67443.084631390956	30
1	2842	67476.075965845629	29
1	2860	67943.206724721502	30
1	2866	68152.077935099671	29
1	2871	68170.651849234484	28
1	2877	68185.945578427879	29
1	2880	68207.893278639259	30
1	2883	68311.723259036798	31
1	2896	68604.060851133993	32
1	2898	68650.541440238848	31
1	2908	68894.119825506871	32
1	2914	69159.027782041587	31
1	2926	69272.861865339473	30
1	2935	69333.549556895801	31
1	2937	69375.915013806964	30
1	2949	69981.272795870573	29
1	2962	70278.800933143132	28
1	2968	70572.552591458288	29
1	2971	70583.811762194756	30
1	2973	70685.38922281384	29
1	2982	71076.530620027006	28
1	2988	71080.370239364221	29
1	3014	71526.780985560338	28
1	3020	71548.573830548323	29
1	3022	71627.04489715957	28
1	3035	71936.739979354898	29
1	3040	72141.151192336947	28
1	3046	72262.74371260613	29
1	3049	72296.290783982678	30
1	3056	72325.297264914545	31
1	3058	72503.830206016148	30
1	3077	73029.019287671494	31
1	3079	73159.807698145517	30
1	3094	73368.615055335358	29
1	3100	73373.906594388218	30
1	3103	73653.216377268814	31
1	3119	74067.285490612724	32
1	3121	74075.332809448312	31
1	3130	74115.723749212593	30
1	3139	74169.037231753156	31
1	3141	74312.125224122786	30
1	3147	74369.678245964257	31
1	3164	74699.243453153769	32
1	3166	74912.725392015721	31
1	3174	75113.938892852523	30
1	3183	75183.12247659047	29
1	3189	75237.203285466149	30
1	3195	75260.096990551081	31
1	3204	75496.905854381202	32
1	3210	75581.311915085063	33
1	3216	75634.214774062882	34
1	3235	75964.438822129414	33
1	3244	76090.456185837556	34
1	3250	76339.417622532704	33
1	3255	76348.258250154625	32
1	3262	76452.929614613141	33
1	3265	76609.955633344536	34
1	3268	76645.494658841739	35
1	3270	76763.007207968876	34
1	3280	76797.516605708132	35
1	3283	76895.468090585399	36
1	3290	76955.358836029936	37
1	3293	76981.627261793613	38
1	3299	77449.509365675979	37
1	3305	77596.203232275631	38
1	3307	77764.236088380288	37
1	3319	78248.905331296519	36
1	3337	78568.991121003412	35
1	3343	78659.523608001079	36
1	3362	79217.157976621832	35
1	3372	79298.204940640972	34
1	3381	79398.499591718818	35
1	3385	79412.059640476566	36
1	3387	79463.173147100963	35
1	3396	79702.931888502073	36
1	3399	79721.502064393919	37
1	3402	79746.843828713548	38
1	3405	79816.353080838919	39
1	3410	79916.458540837885	38
1	3422	79932.564441748921	39
1	3437	80102.676234808764	40
1	3440	80279.499120000209	41
1	3445	80300.611930986936	40
1	3454	80383.445643850151	41
1	3457	80586.022020578592	42
1	3464	80717.827202942058	43
1	3466	80871.83558369615	42
1	3471	80905.731100747035	41
1	3484	81061.523346658295	42
1	3494	81269.065214496088	43
1	3499	81359.418524069781	42
1	3515	81581.286641301006	43
1	3517	81781.547772992411	42
1	3523	81811.429462178004	43
1	3525	81829.494341117935	42
1	3531	81842.701572138741	43
1	3534	81957.090207075166	44
1	3537	82123.783801188602	45
1	3557	82580.98640113105	44
1	3566	82658.141172841978	45
1	3568	82721.224862471292	44
1	3577	83104.092983053858	45
1	3588	83419.583111755559	44
1	3605	83715.665620748186	45
1	3615	83789.731055604473	46
1	3617	83831.545089840958	45
1	3623	84049.872600395708	46
1	3625	84148.948737103166	45
1	3634	84195.14110597636	46
1	3641	84392.845181343358	47
1	3644	84415.925242842129	48
1	3650	84527.964372370642	49
1	3655	84632.610905807534	48
1	3661	84737.668118826919	49
1	3663	84792.20578395729	48
1	3673	84870.514526985379	49
1	3675	85079.53244350479	48
1	3681	85374.101522707118	49
1	3684	85484.629002122416	50
1	3698	85730.018358202326	49
1	3710	86147.956694545293	48
1	3716	86253.846836794146	49
1	3718	86459.257548624659	48
1	3734	86890.488551456268	49
1	3743	87096.363854491758	48
1	3752	87286.995682337291	49
1	3755	87341.686158977397	50
1	3757	87386.378218889305	49
1	3762	87574.335020106295	48
1	3775	88245.21919305996	47
1	3780	88360.112010975975	46
1	3786	88524.553802479779	47
1	3799	88856.211799247259	46
1	3811	89240.386005993608	45
1	3819	89595.558027779693	44
1	3828	89641.722684497082	43
1	3837	89720.491237616927	44
1	3840	89736.281746181326	45
1	3842	89859.263667380113	44
1	3855	90232.565877413627	45
1	3868	90606.494145155021	44
1	3886	91084.09981887416	43
1	3892	91121.777413930563	44
1	3895	91242.977668085528	45
1	3897	91342.229179879326	44
1	3909	91452.571468385005	43
1	3915	91457.746889498017	44
1	3918	91555.201350078875	45
1	3931	91821.779150740541	46
1	3938	92062.419908690324	47
1	3948	92295.289662769298	48
1	3950	92386.379954762825	47
1	3955	92387.925037396747	46
1	3961	92389.711602351041	47
1	3963	92427.491916228095	46
1	3969	92522.466820242637	47
1	3975	92725.450649140595	48
1	3992	93321.504920158545	47
1	4003	93574.516347497377	46
1	4009	93673.285397894112	47
1	4012	93688.280952796939	48
1	4022	94060.378735302084	47
1	4034	94193.64999725918	48
1	4036	94437.70991720819	47
1	4042	94469.815713617948	48
1	4056	94899.914142318506	49
1	4058	95154.789966270003	48
1	4066	95229.728086112077	47
1	4075	95307.438672360834	48
1	4077	95310.119875878164	47
1	4094	95830.390582412559	48
1	4097	95974.249905693876	49
1	4103	96509.195529693748	48
1	4112	96744.126790346605	49
1	4114	96795.711024658823	48
1	4119	96797.218061331335	47
1	4128	97188.002261792564	48
1	4130	97189.884371101867	47
1	4139	97410.632790922794	46
1	4149	97529.096281218034	47
1	4159	97780.993238831008	46
1	4164	97969.031330147769	45
1	4181	98306.786713556293	46
1	4184	98389.638283157148	47
1	4186	98677.355535138409	46
1	4201	98903.09050802109	45
1	4210	99044.86190813973	44
1	4222	99358.016657425101	43
1	4247	99971.909947380493	42
1	4252	100019.351923964928	41
1	4258	100023.92281513324	42
1	4261	100031.95786684849	43
1	4264	100046.661405284708	44
1	4267	100086.607708692766	45
1	4270	100235.385055211768	46
1	4279	100326.575348125447	45
1	4295	100712.045013677365	46
1	4308	100831.773837803855	47
1	4311	100961.612313329475	48
1	4313	100983.866614032606	47
1	4319	101014.963777877729	48
1	4321	101086.635560467516	47
1	4329	101515.749030528601	46
1	4342	101796.532595927457	47
1	4349	102063.349507735843	48
1	4352	102180.449056911734	49
1	4354	102182.395036751081	48
1	4359	102189.207255648518	47
1	4365	102215.846060600123	48
1	4375	102459.42513905117	49
1	4394	102932.708306299534	48
1	4403	103155.614887020774	49
1	4405	103246.555500914951	48
1	4410	103362.43270080916	47
1	4420	103619.539732786568	48
1	4422	103761.001291271311	47
1	4428	103767.00552977946	48
1	4431	103809.689991529386	49
1	4444	104145.926957223241	48
1	4457	104534.939138320298	49
1	4467	104670.974338075802	50
1	4470	104730.521642457438	51
1	4476	104974.979570504882	52
1	4478	104978.757617952371	51
1	4483	105053.81761839242	50
1	4503	105678.764646168867	49
1	4513	105706.873631481037	50
1	4520	105746.408546920461	51
1	4522	105774.010334023883	50
1	4528	105790.300952352119	51
1	4534	106023.471464177074	52
1	4541	106122.276525199279	53
1	4553	106357.894969194632	54
1	4560	106431.188081900215	55
1	4562	106564.413506822673	54
1	4568	106661.761750748853	55
1	4573	107072.916751075213	54
1	4585	107149.963307635928	53
1	4590	107227.898202460272	52
1	4606	107608.304188902592	53
1	4609	107632.139819709494	54
1	4619	107756.883856261293	55
1	4631	107991.91609429575	54
1	4637	108232.434606813299	55
1	4644	108258.802263916475	56
1	4649	108345.531112957759	55
1	4655	108404.937103641254	56
1	4658	108464.410657857541	57
1	4670	108733.912243665804	56
1	4676	108749.762383114382	57
1	4679	108792.645136104309	58
1	4685	109005.447761995453	59
1	4692	109081.200458106196	60
1	4694	109088.975932667101	59
1	4700	109135.943463244408	60
1	4705	109459.787592111169	59
1	4715	109730.780909164262	60
1	4724	109859.568313479699	61
1	4726	109946.253485008751	60
1	4741	110343.799771735514	59
1	4747	110355.579664750003	60
1	4753	110518.942148504792	59
1	4762	110615.95794238489	60
1	4768	110674.547949311932	59
1	4774	110850.582824939437	60
1	4780	111176.912503452985	59
1	4786	111220.612014730889	60
1	4801	111692.638709377175	59
1	4807	111729.574801375526	60
1	4809	111750.015527274529	59
1	4815	111902.500348806849	60
1	4826	112011.59944612119	61
1	4832	112575.726377570395	62
1	4841	112792.358647199361	61
1	4846	112826.010344619001	60
1	4855	112939.690548366346	61
1	4864	113185.595628907582	60
1	4870	113396.205155357068	61
1	4873	113529.903857815127	62
1	4882	113891.122067188522	61
1	4887	113967.078616585652	60
1	4896	114081.755208620815	59
1	4906	114311.540303258581	60
1	4919	114647.502798797398	61
1	4921	114802.459369124523	60
1	4931	115085.636244811548	61
1	4934	115219.787980530132	62
1	4936	115385.445789568196	61
1	4948	115711.572803283124	60
1	4956	116064.15342716468	59
1	4966	116229.217164628761	60
1	4979	116416.045845592464	59
1	4985	116443.058918712976	60
1	4987	116617.145794048919	59
1	5009	117121.072775153122	58
1	5015	117229.382354637669	59
1	5018	117427.722569277516	60
1	5020	117581.651099693044	59
1	5026	117701.514124478371	60
1	5029	117828.876727328202	61
1	5035	117936.290533527802	60
1	5040	118124.070063726655	59
1	5053	118656.86800262339	58
1	5058	118724.308251092224	57
1	5063	118851.505068298108	56
1	5083	119413.581309110201	57
1	5096	119664.964060857571	56
1	5101	119859.096925757839	55
1	5107	120056.956046918704	56
1	5109	120062.06229367673	55
1	5125	120296.174182258225	54
1	5130	120489.730931041776	53
1	5139	120639.674763301352	54
1	5142	120643.78962225865	55
1	5158	121040.680064865998	54
1	5167	121326.373217185973	53
1	5176	121535.853177806433	52
1	5182	121626.546662898819	53
1	5185	121691.049503090892	54
1	5187	121957.268584460034	53
1	5199	122093.577185878209	52
1	5205	122112.960723750731	53
1	5211	122399.341824067827	52
1	5217	122415.83475748113	53
1	5223	122640.343050375595	52
1	5236	122754.410545061953	51
1	5252	123789.083718867987	50
1	5257	123906.281584169786	49
1	5265	124133.170144455187	48
1	5275	124348.673908588004	49
1	5278	124503.444936511884	50
1	5294	125076.148559633657	49
1	5299	125106.344648798998	48
1	5307	125203.788148276188	47
1	5330	125748.661450742331	48
1	5337	125808.939748164296	49
1	5339	125998.641112707236	48
1	5344	126160.938879897888	47
1	5349	126205.275292821243	46
1	5355	126279.903050096485	47
1	5358	126443.427722958684	48
1	5368	126696.593430697239	49
1	5378	126848.821789607476	48
1	5390	127005.362416339927	49
1	5409	127283.212506218459	50
1	5416	127559.597194436618	49
1	5423	127595.140712165079	50
1	5425	127719.545138642207	49
1	5431	127785.203161414943	50
1	5434	127808.822966324281	51
1	5440	127995.989922856936	52
1	5442	128126.176554545831	51
1	5452	128250.969867169195	52
1	5455	128336.745951306328	53
1	5457	128342.093663491324	52
1	5466	128502.931239185535	51
1	5476	128632.833921908552	52
1	5479	128654.867181107557	53
1	5481	128777.267718030211	52
1	5487	128879.352554843566	53
1	5500	129290.282952561655	52
1	5515	129898.188057398439	51
1	5520	129972.387159554359	50
1	5530	130210.581388256555	51
1	5533	130232.390489680889	52
1	5539	130376.446354612389	51
1	5547	130577.208733191729	50
1	5567	130990.325980445989	51
1	5569	131001.388897704032	50
1	5578	131228.58024426704	49
1	5584	131316.179079826251	50
1	5589	131490.187053434566	49
1	5605	131956.623972536632	50
1	5612	132026.510770249872	51
1	5618	132360.552648752609	50
1	5623	132440.313248209727	49
1	5629	132559.193092064798	50
1	5638	132758.844620274395	49
1	5644	132973.849527304153	50
1	5650	133085.189074156487	49
1	5663	133437.647603714466	50
1	5669	133696.345393940878	49
1	5674	134019.761011540905	48
1	5680	134269.655718033288	49
1	5682	134312.887135995233	48
1	5699	134651.267307100603	49
1	5711	134974.383210210145	48
1	5716	135173.019085558203	47
1	5721	135191.464840676317	46
1	5727	135218.7465067709	47
1	5737	135549.267861250258	48
1	5749	135800.249258428494	47
1	5755	135944.048912891147	48
1	5762	136002.504681139924	49
1	5768	136304.150265563918	50
1	5773	136332.221143947986	49
1	5778	136440.13767846489	48
1	5798	136802.447999933104	49
1	5801	136840.966241400094	50
1	5804	136928.212133823975	51
1	5809	137025.106453559975	50
1	5815	137078.608591860546	51
1	5820	137150.02117166856	50
1	5830	137438.511356807233	51
1	5836	137654.808350401194	52
1	5841	137774.641758933735	51
1	5846	137830.182375013511	50
1	5866	138192.508729850889	49
1	5872	138289.366374449394	50
1	5881	138594.64664413562	49
1	5900	138962.41596247655	50
1	5905	139253.215652346627	49
1	5911	139318.967410449804	50
1	5916	139414.593022227359	49
1	5922	139435.207113724783	50
1	5925	139492.456210944983	51
1	5927	139525.722257587742	50
1	5937	139671.012764143295	51
1	5947	139898.000610898383	52
1	5950	139906.620204091069	53
1	5953	139915.160770323427	54
1	5962	140173.009540630521	53
1	5972	140387.200555526353	54
1	5974	140387.632836317327	53
1	5979	140470.556510131878	52
1	5985	140479.448473113894	53
1	6011	141107.422118358386	52
1	6016	141209.007271561788	51
1	6022	141227.626591689739	52
1	6024	141527.405597809386	51
1	6030	141587.718507022643	52
1	6037	141790.555198882513	53
1	6042	141826.54299192691	52
1	6055	142010.723981078786	51
1	6067	142085.724660547466	52
1	6070	142089.852071320619	53
1	6073	142154.339640618414	54
1	6078	142608.338815100508	53
1	6087	142678.906763801035	52
1	6093	142797.053573590845	53
1	6107	143117.232323464484	54
1	6109	143211.221968917248	53
1	6128	143686.08956211807	52
1	6140	144037.403867426902	53
1	6143	144055.431382922094	54
1	6145	144076.9588183981	53
1	6151	144223.646603890984	54
1	6154	144241.634989035187	55
1	6160	144355.510443622263	54
1	6172	144725.195485375894	53
1	6181	144953.658250054099	54
1	6191	145205.093490819267	55
1	6197	145440.523924581723	54
1	6202	145586.427802862284	53
1	6211	145610.434543920318	54
1	6214	145692.559916938051	55
1	6219	145778.931431802062	54
1	6225	145790.475163458983	55
1	6234	146185.594601701962	54
1	6244	146273.458970513027	55
1	6260	146483.978204019462	56
1	6262	146692.735970923362	55
1	6278	146924.819762545625	56
1	6283	147076.326725738196	55
1	6289	147084.663473792982	56
1	6294	147237.017100607993	55
1	6300	147237.505651786897	56
1	6303	147364.749930237212	57
1	6310	147586.084440735737	58
1	6317	147641.799452190521	59
1	6320	147787.993817454797	60
1	6323	147817.955266597719	61
1	6325	148150.079648416506	60
1	6334	148189.861884386895	59
1	6346	148605.640944795756	58
1	6362	149088.216821364743	57
1	6371	149151.46829251103	58
1	6377	149502.641351257029	59
1	6379	149644.29633379543	58
1	6384	149815.001332009284	57
1	6394	150000.858084816026	58
1	6403	150359.112854990793	57
1	6408	150449.957439176811	56
1	6418	150743.26231470976	57
1	6421	150762.898640741626	58
1	6434	151106.626658052279	57
1	6439	151314.108060501533	56
1	6458	151994.773940387798	55
1	6466	152115.210742844286	54
1	6472	152390.447308275665	55
1	6475	152465.239556431075	56
1	6477	152720.00447894415	55
1	6482	152745.652662333174	54
1	6487	152798.609629903006	53
1	6508	153226.37302661789	54
1	6515	153262.15074938505	55
1	6521	153429.31746264768	56
1	6526	153602.497433429601	55
1	6531	153635.839945729506	54
1	6536	153697.644026599897	53
1	6549	153873.514702986376	54
1	6555	154035.219157514277	55
1	6558	154225.248405298516	56
1	6587	154667.513282982705	55
1	6595	154898.371762502623	54
1	6601	154919.670116039468	55
1	6604	154944.232675204542	56
1	6606	155242.896590843814	55
1	6616	155306.193541016637	56
1	6622	155425.141135314726	57
1	6632	155527.384733217628	58
1	6635	155690.147057150384	59
1	6647	155807.109338030292	58
1	6652	155850.446405335945	57
1	6658	155880.133137270559	58
1	6660	156151.241557622346	57
1	6670	156519.700205630697	58
1	6680	156795.161503846508	59
1	6683	156815.16132975806	60
1	6688	156870.814362097605	59
1	6698	157181.17694078047	60
1	6704	157402.53196808818	61
1	6707	157407.560182969903	62
1	6709	157455.983966234756	61
1	6722	157782.777753151971	60
1	6728	157794.166119161123	61
1	6737	158450.885486006421	60
1	6745	158498.858962705432	59
1	6751	158966.555165578188	60
1	6761	159462.293614005688	59
1	6766	159482.133869821279	58
1	6782	159980.320482974056	59
1	6787	160117.823156686184	58
1	6800	160496.009875370377	59
1	6806	160567.018656726945	58
1	6815	160936.980987024763	59
1	6817	161109.905767472534	58
1	6826	161191.177294540458	59
1	6833	161431.531256895644	60
1	6835	161548.721994496566	59
1	6845	161772.229686719278	60
1	6847	161995.906727431361	59
1	6855	162028.506748577653	58
1	6868	162304.467269891536	59
1	6881	162846.515094311592	58
1	6890	162905.559042937439	59
1	6892	163201.428886871804	58
1	6901	163214.047757092937	57
1	6907	163300.618248177402	58
1	6910	163326.381302429188	59