version 2
run Iteration-31-20200521-09:52:32-51856
attr configname Iteration
attr datetime 20200521-09:52:32
attr experiment Iteration
attr inifile omnetpp.ini
attr iterationvars "$i=3, $j=7, $0=15-(3+7)"
attr iterationvarsf i=3,j=7,15-(3+7)-
attr measurement "$i=3, $j=7, $0=15-(3+7)"
attr network Network
attr processid 51856
attr repetition 0
attr replication #0
attr resultdir results
attr runnumber 31
attr seedset 31
itervar i 3
itervar j 7
param **.resourcePool.amount 3
param **.resourcePool1.amount 7
param **.resourcePool2.amount 15-(3+7)
param **.source.interArrivalTime exponential(6min)
param **.delay.delay uniform(4min,28min)
param **.delay1.delay uniform(10min,28min)
param **.delay2.delay uniform(4min,16min)
param **.allocate.resourceModuleName "\"Network.resourcePool\""
param **.allocate1.resourceModuleName "\"Network.resourcePool1\""
param **.allocate2.resourceModuleName "\"Network.resourcePool2\""
param **.deallocate.resourceModuleName "\"Network.resourcePool\""
param **.deallocate1.resourceModuleName "\"Network.resourcePool1\""
param **.deallocate2.resourceModuleName "\"Network.resourcePool2\""
param **.router.randomGateIndex "uniform(0, 1) > 0.2 ? 0 : 1"

vector 0 Network.allocate queueLength:vector ETV
attr interpolationmode sample-hold
attr title "queue length, vector"
vector 1 Network.allocate1 queueLength:vector ETV
attr interpolationmode sample-hold
attr title "queue length, vector"
vector 2 Network.allocate2 queueLength:vector ETV
attr interpolationmode sample-hold
attr title "queue length, vector"
vector 3 Network.sinkStat lifeTime:vector ETV
attr interpolationmode none
attr title "lifetime of arrived jobs, vector"
attr unit s
vector 4 Network.sink lifeTime:vector ETV
attr interpolationmode none
attr title "lifetime of arrived jobs, vector"
attr unit s
0	0	0	0
0	11	612.275081263308	1
0	13	986.550872328339	2
0	15	1070.575891318354	3
0	17	1222.856369160774	4
0	19	1275.864379333791	5
0	21	1365.441407381781	6
0	23	1481.143048141468	5
0	28	1740.973191683704	4
0	33	1933.061007933987	3
0	42	2225.855101207972	4
0	44	2259.569548430099	5
0	54	2908.001136675952	6
0	60	3043.166163076032	5
0	69	3305.552669800232	6
0	71	3329.066979934985	5
0	76	3377.597437652124	4
0	85	3766.523308073739	5
0	91	3848.838803482766	4
0	96	3856.137440588091	5
0	98	3901.169559803177	4
0	103	4076.317734714415	5
0	109	4188.477965730487	6
0	115	4260.787100570573	5
0	120	4376.732861102618	6
0	126	4548.417518843282	5
0	131	4631.122941658195	6
0	133	4780.811218372128	7
0	135	4791.633728762543	8
0	141	4836.502927219088	7
0	154	5176.462069001366	6
0	159	5341.901516517217	5
0	180	5690.213283339812	4
0	189	6053.665347921027	3
0	194	6112.10414911819	4
0	196	6134.768311207707	3
0	217	6410.723484900166	2
0	222	6449.811365168825	3
0	228	6474.296324973519	2
0	245	7115.556281131078	1
0	262	7320.2128295622	0
0	267	7320.30364205969	1
0	273	7378.476648420564	2
0	279	7624.261840802839	3
0	285	7677.768812330736	2
0	290	7754.578893972476	3
0	292	7757.248054377029	4
0	306	7912.361947236176	3
0	311	8352.313113959803	2
0	328	8609.350359585453	1
0	337	8819.859394304259	2
0	343	8914.524541249092	1
0	348	8942.907908821775	0
0	357	9074.819330516242	1
0	371	9282.999695429875	0
0	391	9798.846447643945	1
0	393	9808.90043475699	2
0	399	9943.927520510126	1
0	404	10127.914698722138	0
0	444	10718.82805193572	1
0	446	10732.076404144998	0
0	451	10734.362495757088	1
0	453	10829.663634525909	0
0	458	10830.976628765171	1
0	464	10902.521078360053	2
0	470	11088.163185138649	3
0	480	11278.889691023167	2
0	497	11583.152753571508	1
0	510	11716.769875078048	2
0	512	11854.944316080409	3
0	518	12193.232978770806	2
0	523	12402.964253253748	3
0	525	12445.491215968964	2
0	534	12454.787245256837	1
0	543	12903.959756726859	0
0	601	13890.675262850656	1
0	607	14230.054690080991	0
0	646	14705.129968458478	1
0	652	14770.245953680513	2
0	658	14819.542199789943	1
0	663	14951.962764977919	0
0	699	15603.256618486645	1
0	701	15611.56755646266	2
0	711	15868.648616550995	3
0	729	16344.567553221645	2
0	734	16487.280909737346	3
0	736	16499.463624141621	2
0	741	16525.35457562279	1
0	750	16973.428902074205	0
0	820	18925.06457290035	1
0	830	19129.310581530763	0
0	951	23432.988918100317	1
0	969	24002.922027606205	2
0	975	24067.257146162037	1
0	980	24253.276980267783	0
0	1022	25951.401518716276	1
0	1024	25963.848474537025	2
0	1026	25994.522839404212	1
0	1051	26708.716435855995	0
0	1056	26755.850269231113	1
0	1062	26982.610681086348	0
0	1067	27013.24161702681	1
0	1069	27150.858492182434	2
0	1071	27163.886942071742	1
0	1076	27232.768452441378	2
0	1082	27464.584899409483	1
0	1087	27546.812723195082	0
0	1096	27589.747843783466	1
0	1098	27654.321351974443	2
0	1100	27842.156892767916	1
0	1105	27913.58571780709	2
0	1107	27955.840256951319	1
0	1112	28033.243399254192	2
0	1134	28705.057642065178	3
0	1144	28961.093860148953	2
0	1153	29074.052161378688	1
0	1170	29210.189723162721	0
0	1175	29324.073321853049	1
0	1177	29364.674967780279	0
0	1182	29396.317203799119	1
0	1184	29501.304877108344	2
0	1186	29634.727725378739	1
0	1191	29656.117270199693	2
0	1201	30026.20996511841	3
0	1211	30280.34139049686	2
0	1216	30389.866670995521	1
0	1221	30398.515036270628	2
0	1227	30481.857162220306	1
0	1260	31132.562706945367	0
0	1265	31248.491361887801	1
0	1279	31433.468704625535	0
0	1284	31445.997917705122	1
0	1286	31839.972497962893	2
0	1292	31862.212007581065	1
0	1305	32101.09825253202	2
0	1307	32131.516164941616	1
0	1312	32161.564690074692	0
0	1340	33006.042533363079	1
0	1342	33035.689962014127	0
0	1347	33066.02415533956	1
0	1353	33109.72932632164	2
0	1363	33468.828112411281	3
0	1365	33534.110663954907	2
0	1374	33639.702816037364	1
0	1395	34003.683108237123	2
0	1397	34166.145087211895	1
0	1402	34173.038451885707	0
0	1426	34701.471521349015	1
0	1436	35027.777811896795	0
0	1441	35409.076840490753	1
0	1455	35697.210598989892	0
0	1460	35707.069819513272	1
0	1470	35927.140770687525	0
0	1483	35970.784437729561	1
0	1485	35989.130206492537	0
0	1490	36033.993352168875	1
0	1508	36757.622336989216	2
0	1514	36886.287864811289	1
0	1519	36890.196026926841	2
0	1521	36945.07298381328	1
0	1526	36961.889257824783	0
0	1543	37354.803148457867	1
0	1553	37622.90175548708	2
0	1555	37661.399824565157	3
0	1561	37976.780288464193	2
0	1570	38222.564771891471	3
0	1572	38297.041197729105	2
0	1577	38313.690534114408	1
0	1590	38477.443280708145	2
0	1592	38567.901825416719	3
0	1594	38703.17343180328	2
0	1599	38814.698187944347	3
0	1609	39010.77948240823	2
0	1618	39274.566348654026	1
0	1623	39326.414396311349	2
0	1629	39439.783537864256	1
0	1634	39630.156930026406	0
0	1647	39812.499400026502	1
0	1653	39978.546113699246	0
0	1719	41195.24086384157	1
0	1721	41249.627566242016	2
0	1723	41278.854851392566	1
0	1732	41445.704598590079	2
0	1738	41587.390825026433	3
0	1748	41868.004906730503	4
0	1754	41949.249224247914	3
0	1763	42285.071966199449	2
0	1768	42473.967829684039	3
0	1770	42494.152849060952	2
0	1783	42593.071454341777	3
0	1785	42664.211409242311	4
0	1787	42779.956557004026	3
0	1792	42817.028649172048	4
0	1794	42864.004054819702	3
0	1811	43174.936064971148	2
0	1816	43362.630709577184	3
0	1822	43479.529856624585	2
0	1831	43556.581612190477	1
0	1844	43838.186274541787	0
0	1963	46848.562396972355	1
0	1969	47020.157179040908	2
0	1971	47088.83708782054	1
0	1984	47406.796506821608	2
0	1986	47438.034539214779	3
0	1992	47563.571196040949	4
0	1998	47630.13546670572	3
0	2003	47769.934883313775	4
0	2005	47830.312739940607	5
0	2015	48149.013947259389	6
0	2017	48220.258662547241	5
0	2022	48263.240260136255	4
0	2035	48341.131567784211	5
0	2037	48382.614328179221	4
0	2042	48636.161925477304	5
0	2048	48775.051474597018	4
0	2057	49042.754093659052	3
0	2062	49100.357298511337	2
0	2071	49249.246534023147	1
0	2084	49435.725243503402	2
0	2086	49563.512133839797	1
0	2103	50049.1489092766	2
0	2125	50393.045395980846	1
0	2130	50468.208936478656	0
0	2196	52471.989589276613	1
0	2198	52497.745486944484	2
0	2200	52524.275817396055	1
0	2205	52575.51782995125	2
0	2211	52640.708432462898	3
0	2217	52683.22264254082	4
0	2223	52986.202235425144	3
0	2232	53284.5815802222	2
0	2249	53870.630598793059	1
0	2258	54069.107091696869	0
0	2267	54193.915897586278	1
0	2273	54351.702587864405	2
0	2275	54469.282096162986	1
0	2284	54821.314308812293	2
0	2290	55013.234271286042	3
0	2296	55257.575288473091	4
0	2306	55425.897848022692	5
0	2308	55440.982530283063	4
0	2313	55441.570748658787	3
0	2318	55752.831298856772	4
0	2320	55851.547045097303	3
0	2329	56006.192072235268	4
0	2339	56097.119050713509	3
0	2352	56548.485099062872	2
0	2357	56594.357204503197	3
0	2363	56862.114680277437	2
0	2368	56971.419483357977	1
0	2373	57028.091945671094	0
0	2382	57232.926910248113	1
0	2392	57399.514399965317	2
0	2406	57656.294844117384	3
0	2408	57734.420428181321	2
0	2421	58025.540117284287	3
0	2423	58030.135446098554	4
0	2425	58060.851787134462	5
0	2431	58399.515827568185	4
0	2444	58556.77485218699	3
0	2457	59076.06952503509	4
0	2463	59180.191299001009	3
0	2468	59196.876441195641	4
0	2474	59384.281262205851	3
0	2487	59556.900812803829	4
0	2489	59747.917641908479	3
0	2494	59820.549219640226	2
0	2511	60492.263393872035	1
0	2520	60685.220195370049	0
0	2540	61142.039688531498	1
0	2542	61142.162355685861	0
0	2574	62165.640457097329	1
0	2584	62368.895190098854	2
0	2586	62471.764912734063	1
0	2591	62500.620676566776	2
0	2605	62715.260056079329	1
0	2614	62727.427510838007	0
0	2619	62729.930050811458	1
0	2625	62901.038051994723	2
0	2631	63054.373029818628	3
0	2637	63210.308990046844	4
0	2639	63480.863811055277	5
0	2653	63942.782119934294	6
0	2655	64010.457173863681	5
0	2664	64163.661062837542	4
0	2669	64291.663811984455	3
0	2674	64460.072256360711	4
0	2676	64567.094752833345	5
0	2682	64669.247700892511	6
0	2688	64767.898584612609	5
0	2693	64906.530338617297	4
0	2698	64976.983741283573	5
0	2700	65070.332196561991	6
0	2706	65294.502285251951	7
0	2716	65480.08272759149	6
0	2721	65526.395621742669	7
0	2727	65836.041833952964	6
0	2732	65848.363835842359	7
0	2734	65935.702161896025	6
0	2743	66002.282121338226	7
0	2745	66142.051048007602	8
0	2747	66257.948213041556	9
0	2749	66259.266329499217	8
0	2762	66476.024295286239	7
0	2775	66578.538129123183	6
0	2780	66644.425985771214	5
0	2785	66679.911546277433	6
0	2791	66779.274445817206	7
0	2805	67076.781842443143	6
0	2810	67206.15198745628	7
0	2812	67364.907638872956	6
0	2833	67539.926273877056	5
0	2838	67579.0785414809	4
0	2851	67870.668849530655	5
0	2857	68046.221114519818	6
0	2863	68170.663421767967	7
0	2869	68279.491212571295	6
0	2882	68343.145822319185	5
0	2887	68357.783621909197	6
0	2905	68975.211810217203	5
0	2918	69128.190905706203	6
0	2928	69280.719938183459	5
0	2937	69747.640880288812	4
0	2942	69832.497560800017	3
0	2951	69966.860525789654	2
0	2956	70151.769085802867	3
0	2966	70253.957779862882	2
0	2971	70271.46319535313	3
0	2973	70437.599049950933	2
0	2990	70554.701806398364	1
0	3007	70989.199261487426	0
0	3047	71755.029972724165	1
0	3049	71954.671390073629	0
0	3126	73316.744154830003	1
0	3132	73501.505410557353	0
0	3156	74222.826660484192	1
0	3158	74266.170735718861	0
0	3163	74319.472656912628	1
0	3165	74373.891616685056	0
0	3178	74655.074089254947	1
0	3180	74697.357149148196	2
0	3182	74800.709550887734	3
0	3184	75056.019103270169	4
0	3190	75335.285599937403	3
0	3199	75408.138731816962	2
0	3208	75617.533171315431	1
0	3213	75660.443798398514	2
0	3223	75940.30692851921	3
0	3229	76123.504595634281	2
0	3250	76892.037721534932	1
0	3259	76942.660709792927	0
0	3351	79487.937569269702	1
0	3353	79547.432672658376	0
0	3362	79908.845151303027	1
0	3364	79998.431836764432	0
0	3369	80140.03670412971	1
0	3379	80462.0525855451	0
0	3486	83960.750733905606	1
0	3496	84176.47025535801	0
0	3572	86062.287918332655	1
0	3574	86087.985005572499	0
0	3670	89229.722208060862	1
0	3672	89267.756869785002	2
0	3678	89465.741315935352	1
0	3687	89617.124983894428	0
0	3696	90093.349939845653	1
0	3702	90321.688181507971	0
0	3715	90741.151145545176	1
0	3717	90992.555292066732	0
0	3744	91508.255085690208	1
0	3746	91517.204750929573	0
0	3755	91899.31986824391	1
0	3757	91951.459205229381	0
0	3868	94413.384298608175	1
0	3878	94575.799435232456	0
0	3943	96165.801007112818	1
0	3949	96383.350927149149	2
0	3955	96566.814559813694	1
0	3968	96857.803285360149	2
0	3974	96922.447060718981	3
0	3976	97307.951392936737	4
0	3982	97500.920705730499	3
0	3987	97558.75460336529	2
0	4004	97673.440365124599	1
0	4009	97767.235678674644	2
0	4011	97946.455410433042	3
0	4013	98070.237184437395	2
0	4022	98368.226163771689	3
0	4032	98935.571091737703	2
0	4037	98985.327938049443	3
0	4043	99024.601429799426	2
0	4056	99282.115470217944	1
0	4065	99593.174329712129	2
0	4067	99637.758847665147	1
0	4072	99763.85703371338	2
0	4074	99861.260114284635	1
0	4083	100110.342174069113	2
0	4089	100450.200818339766	1
0	4106	100675.377207571495	0
0	4142	101647.336481614119	1
0	4144	101821.823699254725	2
0	4146	101850.493799643994	1
0	4151	101889.207277619884	2
0	4165	102113.543384509016	1
0	4170	102263.520479994298	0
0	4175	102291.965214468129	1
0	4177	102318.913056805024	0
0	4182	102339.499255662967	1
0	4192	102697.032568576218	0
0	4197	102698.275801815172	1
0	4199	102889.285144327683	2
0	4225	103614.23314707898	1
0	4230	103690.961243278573	0
0	4243	103903.21284381345	1
0	4249	103943.528103391112	0
0	4258	104273.119553322091	1
0	4260	104580.301104850362	0
0	4265	104663.214785312069	1
0	4267	104669.766746033774	2
0	4269	104740.604577856542	1
0	4282	105199.822421992053	0
0	4314	105589.352387503792	1
0	4316	105744.281354500974	2
0	4318	105804.607826532651	1
0	4323	105817.081662184785	0
0	4332	105998.703062413105	1
0	4334	106026.503329307607	0
0	4374	106940.698847411122	1
0	4380	107113.034020537366	0
0	4419	107913.138255278865	1
0	4429	108206.711061649372	2
0	4443	108701.095931043079	3
0	4445	108737.603826178321	4
0	4455	108788.433863097657	3
0	4460	108844.328965765012	2
0	4465	109016.802213833449	3
0	4467	109154.641065780707	4
0	4469	109345.929881494132	3
0	4478	109451.281987127436	2
0	4483	109470.41608313394	3
0	4485	109807.113763080765	2
0	4494	110056.569005657507	1
0	4507	110267.351806025592	0
0	4516	110436.050736867822	1
0	4534	110894.272246906389	0
0	4565	111525.618786828508	1
0	4567	111560.354578963291	0
0	4591	112206.204234725075	1
0	4593	112286.012717964942	2
0	4599	112415.873066292949	3
0	4609	112582.939561836419	2
0	4618	112691.447850684014	3
0	4620	112722.890854462706	4
0	4622	112746.339396673143	5
0	4624	112904.473163515166	6
0	4630	112932.850956057427	7
0	4640	113119.366182706129	6
0	4653	113476.659829935587	7
0	4655	113521.379889490391	6
0	4660	113564.553471624849	5
0	4669	113663.807264396953	6
0	4671	113890.198435390676	5
0	4676	114004.378293833414	6
0	4682	114064.562107630869	7
0	4688	114140.667182959614	6
0	4693	114405.15726903457	7
0	4699	114658.280059679222	6
0	4704	114777.172831686522	5
0	4733	115297.309733768329	6
0	4743	115508.603000201283	5
0	4756	115900.415153474724	6
0	4758	115903.229060674395	5
0	4767	116014.992029129338	4
0	4784	116647.386943942678	3
0	4789	116818.609957776962	2
0	4794	116921.967779995367	3
0	4804	117111.177233166991	2
0	4809	117126.70162610462	3
0	4811	117177.84190593132	2
0	4816	117204.893670816932	3
0	4822	117391.943683497383	4
0	4828	117454.81161121603	5
0	4834	117529.244194122341	4
0	4839	117679.501597187489	5
0	4845	117969.242923616243	4
0	4850	118139.262687310575	3
0	4859	118244.345036643506	4
0	4869	118374.584419382327	5
0	4871	118395.989898017419	4
0	4876	118662.166070172873	3
0	4881	118722.770657612239	4
0	4883	118747.23597231451	5
0	4885	118762.593660473822	4
0	4906	119037.485940315844	5
0	4908	119055.406544999162	6
0	4910	119195.298084059944	7
0	4927	119455.887211307882	6
0	4932	119480.685762742735	7
0	4934	119618.518329880012	6
0	4939	119633.173409313795	7
0	4962	119866.319528876531	8
0	4964	120012.306385802415	7
0	4973	120103.266811395517	8
0	4975	120239.017718256751	9
0	4985	120541.445463286293	10
0	4987	120691.343475408358	11
0	4989	120896.042903459443	10
0	4994	120968.374731372186	11
0	5000	121035.543542809783	10
0	5013	121323.99908961573	9
0	5022	121614.935272464839	8
0	5027	121740.709112950946	9
0	5029	121753.699931893318	10
0	5047	122179.133033922686	9
0	5056	122237.155132677082	10
0	5058	122275.832926219444	11
0	5064	122302.831527039407	10
0	5069	122313.061121677592	11
0	5083	122738.523841096609	12
0	5085	122822.134803029088	11
0	5094	123139.549877091766	12
0	5096	123172.723160854353	11
0	5101	123216.102257648794	10
0	5106	123257.715235471724	9
0	5111	123357.782620652849	10
0	5117	123543.485041307573	11
0	5119	123716.129700015223	12
0	5121	123731.238506222317	13
0	5123	123751.569123806743	12
0	5136	123963.453534825517	11
0	5141	123971.2297193408	10
0	5162	124492.799681564645	11
0	5164	124566.530599925405	12
0	5170	124592.55720290122	13
0	5184	124719.264155535771	12
0	5189	124741.797354871718	11
0	5202	124869.836715684463	12
0	5204	125023.803630813955	11
0	5209	125027.51577980723	12
0	5211	125126.280936932275	13
0	5213	125411.29164502336	14
0	5219	125480.445207470732	15
0	5229	125758.300367623915	16
0	5235	125923.125285001783	15
0	5244	126006.384903088211	14
0	5253	126200.406917578353	13
0	5262	126454.178388357668	14
0	5264	126498.741870789361	15
0	5270	126595.847008506148	14
0	5287	126811.813970002838	15
0	5305	127299.752389558807	16
0	5307	127413.438585086538	15
0	5312	127420.434587419032	14
0	5321	127537.135607374886	15
0	5327	127847.020896876543	14
0	5340	128332.283464432393	15
0	5342	128411.79483382292	14
0	5351	128513.48669923398	15
0	5365	128864.395493201911	14
0	5374	129119.89767307275	15
0	5376	129189.356352359056	14
0	5381	129477.613192292243	13
0	5394	129602.890006623044	12
0	5399	129682.00352486968	11
0	5416	129981.620128171831	10
0	5421	130165.237549215555	9
0	5430	130375.949674120917	8
0	5435	130451.857713120082	9
0	5457	131076.802681664318	8
0	5466	131286.026796716718	9
0	5468	131324.258124769334	10
0	5470	131402.275547988713	9
0	5487	131633.954265864046	10
0	5489	131829.300846478715	9
0	5502	131911.3768246301	10
0	5508	132356.103128574789	9
0	5513	132374.132159220368	8
0	5522	132473.838353474242	9
0	5532	132865.683137558401	8
0	5537	132923.560602388158	7
0	5550	133260.080575238931	8
0	5556	133394.848189896304	9
0	5562	133503.409645839408	8
0	5583	133754.120213108451	7
0	5592	133985.332973681391	6
0	5597	134164.345235585958	7
0	5611	134616.83052154103	6
0	5620	134652.164098455384	5
0	5641	135272.605827718974	4
0	5654	135639.744269182635	5
0	5660	135838.810113301833	6
0	5662	136046.231069097609	5
0	5667	136060.787857345119	4
0	5676	136588.816859962732	3
0	5681	136622.537207533884	4
0	5695	136816.368165619672	3
0	5700	136892.645051045354	4
0	5702	137083.607766412199	3
0	5715	137448.754388958216	2
0	5720	137496.218743370899	3
0	5726	137630.865753239766	2
0	5731	137712.83532159316	3
0	5741	137864.744112024397	2
0	5746	137907.955690443516	1
0	5751	137922.147470515338	2
0	5757	138044.667395506839	3
0	5759	138051.969531200389	4
0	5765	138174.259112784761	5
0	5771	138404.134201540426	4
0	5796	138918.40711099872	3
0	5801	139113.912003806607	2
0	5814	139243.819386333228	1
0	5827	139409.145114747133	2
0	5841	139841.350932324618	1
0	5846	139963.603473656141	2
0	5848	139964.055229341554	3
0	5854	140183.501900479198	2
0	5859	140184.538571065459	3
0	5873	140336.77666486398	4
0	5875	140488.313645534438	5
0	5877	140517.891022584216	4
0	5890	141105.031915733904	3
0	5911	141420.537048734725	2
0	5916	141545.259586684567	3
0	5918	141572.18839181848	2
0	5923	141747.805364745051	1
0	5932	141786.883541233203	2
0	5942	142126.465257786215	1
0	5951	142296.519742322814	2
0	5953	142396.777167937533	1
0	5958	142672.373901701347	0
0	6039	144425.936110081185	1
0	6045	144497.049462657751	0
0	6054	144633.261626080547	1
0	6056	144751.313631435157	0
0	6073	145007.923353256394	1
0	6083	145255.07589418105	2
0	6085	145398.363746243216	3
0	6095	145603.085372757496	2
0	6100	145621.442530862672	3
0	6106	145789.074744434361	2
0	6111	145802.180355605768	3
0	6113	145847.816704822005	2
0	6122	146243.863644136316	3
0	6124	146263.519093698966	4
0	6138	146482.631819763444	5
0	6140	146513.720199397284	6
0	6146	146949.199740552609	5
0	6151	147118.09232288262	6
0	6153	147183.470075147743	7
0	6155	147190.438151482822	6
0	6164	147242.772533767173	7
0	6166	147288.512659830273	6
0	6183	147701.936577864255	7
0	6185	147952.154525398268	8
0	6187	147961.84974238109	9
0	6189	147997.051560472993	10
0	6191	148019.754643300961	11
0	6197	148278.869460832657	10
0	6202	148302.105317452257	9
0	6215	148551.504411699808	10
0	6217	148569.231821969738	11
0	6219	148705.005110079579	12
0	6221	148732.826644572752	13
0	6223	148750.837331091286	12
0	6232	148972.101764836182	13
0	6234	149347.680792441616	14
0	6236	149426.320696236916	15
0	6238	149521.765760445302	14
0	6243	149561.606708813788	13
0	6252	149655.605699248338	14
0	6254	149727.135446270229	13
0	6267	150007.143965811735	12
0	6284	150366.407867447866	13
0	6286	150422.964581075345	14
0	6288	150440.016132196015	15
0	6306	150759.28033658606	14
0	6319	150915.555232354706	13
0	6328	151230.039546985509	12
0	6333	151399.009989752197	13
0	6335	151488.368516579313	14
0	6341	151634.061626282753	13
0	6346	151813.233121265351	14
0	6360	152207.318562765004	13
0	6369	152320.017494145321	14
0	6371	152416.730670222348	13
0	6380	152481.604971450986	12
0	6389	152695.309310790481	11
0	6406	152773.483442530903	12
0	6412	152945.814930138411	11
0	6417	152970.427987800937	12
0	6419	153022.047873645924	13
0	6429	153480.300278925176	14
0	6431	153609.336782370092	13
0	6436	153697.306346086087	12
0	6441	153700.506509295127	13
0	6443	153707.258876749581	12
0	6476	154773.010497588994	11
0	6481	154860.802441735985	10
0	6490	155141.228179783827	9
0	6495	155155.533747519264	10
0	6505	155357.580475254476	11
0	6511	155478.174143398637	12
0	6513	155700.489011013351	13
0	6515	155705.297634390416	12
0	6520	155781.537455219855	13
0	6522	155860.739938553752	12
0	6531	155935.734457821182	13
0	6537	155981.513515302247	12
0	6542	156180.373043466689	11
0	6551	156308.742892186546	12
0	6553	156315.055555995274	13
0	6555	156324.230603276356	14
0	6577	156873.570115913035	13
0	6594	157144.577569441206	12
0	6599	157237.34407537127	13
0	6609	157344.560603288236	12
0	6622	157833.617839785586	13
0	6632	157877.769749501056	12
0	6637	157945.370109020016	13
0	6639	158067.955710750403	12
0	6656	158342.141814653995	11
0	6661	158544.298283782209	12
0	6663	158599.921143311626	13
0	6665	158617.314647064812	12
0	6670	158707.792531803208	13
0	6672	158722.101377150422	14
0	6678	158756.51057542521	13
0	6683	158780.748432307614	14
0	6689	158825.842683631241	15
0	6695	158931.331122146256	14
0	6700	159231.034968544128	13
0	6713	159406.895285653479	14
0	6719	159630.34020088733	13
0	6728	159748.721666236641	12
0	6741	159952.874659995923	13
0	6743	160029.936496765621	12
0	6756	160241.066049565395	13
0	6758	160293.760641341331	12
0	6767	160398.148302354596	13
0	6769	160402.861335512581	12
0	6794	160835.059439000278	13
0	6804	161055.865501464613	12
0	6809	161100.034314127767	13
0	6819	161304.134701725426	12
0	6824	161395.421228819795	11
0	6829	161415.69451623899	10
0	6838	161514.897374975802	11
0	6848	161816.112810310719	12
0	6850	161878.629888322528	13
0	6856	162031.970404574942	14
0	6870	162443.847029212582	15
0	6880	162739.825343427482	14
0	6897	162953.75632320247	15
0	6899	162964.729697343293	14
0	6904	163073.316356578179	13
0	6909	163167.828417352931	14
0	6911	163480.894540374401	13
0	6924	164291.313039224926	12
0	6929	164318.497069826242	13
0	6931	164352.669791256311	12
0	6952	164565.351228119143	11
0	6957	164649.527920429405	12
0	6971	165157.921380373178	13
0	6973	165362.386977088038	12
0	6978	165421.123708770955	13
0	6984	165678.070707258169	12
0	6989	165743.177944087692	11
0	6994	165823.667633136037	10
0	7003	166107.54847781215	11
0	7013	166561.219195773128	10
0	7022	166720.220500726585	9
0	7035	166998.969166887227	8
0	7040	167034.281323117525	9
0	7042	167039.581338019379	8
0	7047	167071.368328331596	9
0	7057	167263.916261454179	10
0	7059	167286.187733508351	11
0	7069	167610.308026630762	12
0	7071	167711.759448957864	11
0	7084	167906.670298623151	12
0	7086	167906.84232522953	11
0	7091	167962.463416916553	10
0	7108	168358.023788235666	11
0	7114	168536.70250729076	12
0	7128	168657.129499784906	13
0	7130	168664.924395495363	12
0	7139	168805.53659559447	11
0	7156	169100.656952087168	10
0	7161	169131.416858617345	11
0	7167	169342.550607261483	10
0	7184	169713.79227208194	11
0	7186	169756.456001513906	10
0	7191	169827.021078255359	9
0	7220	170556.407341272421	10
0	7226	170722.582419724326	11
0	7232	170826.445727614233	12
0	7234	170965.569814604942	11
0	7243	171087.780243207101	10
0	7248	171093.158569581839	11
0	7254	171235.004625980067	12
0	7256	171281.519622021623	11
0	7265	171441.648379687552	10
0	7270	171502.213781042328	11
0	7272	171621.60069153947	10
0	7277	171731.894967786419	11
0	7283	171839.821283568029	10
0	7292	172040.987213005546	9
0	7325	172775.811640632573	8
0	7330	172795.683102959681	9
0	7332	172886.565346756287	8
0	7345	173069.248633721771	9
0	7355	173187.452425774826	10
0	7357	173329.145707995253	11
0	7359	173457.945620727126	10
0	7368	173629.657155524537	11
0	7370	173658.745164872416	10
0	7379	173758.952358178899	11
0	7381	173788.718177576784	10
0	7386	173814.923385281448	9
0	7395	173925.52269179494	8
0	7400	174057.907918331448	7
0	7405	174199.726241264054	8
0	7411	174252.835451340563	9
0	7425	174677.125423246932	10
0	7431	174693.088029453261	11
0	7433	174713.701740504511	10
0	7438	174898.947474864337	11
0	7440	174936.103573830956	12
0	7446	175015.07935626306	13
0	7456	175085.143161502902	12
0	7461	175274.865370143537	11
0	7474	175539.316600728878	12
0	7496	175996.602200324408	13
0	7498	176034.105494145636	12
0	7503	176102.6437005859	13
0	7513	176178.726045121459	14
0	7515	176225.738135018655	13
0	7528	176537.014259745602	12
0	7537	176674.254928821167	13
0	7555	177172.548024171301	12
0	7560	177187.177091998283	11
0	7569	177289.674827243876	12
0	7575	177437.385368321423	11
0	7580	177676.058291142297	12
0	7586	177798.765100960855	11
0	7595	178153.735325933703	10
0	7600	178193.139161361125	11
0	7602	178355.577557609036	12
0	7604	178394.022692901318	11
0	7609	178517.600958135311	10
0	7614	178585.699076274148	11
0	7636	179252.026133921329	10
0	7641	179276.494427747991	11
0	7655	179468.72591135395	10
0	7668	179710.169687235066	9
0	7677	179867.461693931703	8
0	7682	179991.861117706904	7
0	7695	180316.744709921305	6
0	7704	180679.671656351869	5
0	7709	180817.680555695006	4
0	7718	180993.519622993057	3
0	7731	181085.051617586323	2
0	7744	181215.718106486801	3
0	7746	181307.942562406163	4
0	7756	181390.804398261359	5
0	7758	181630.098695427663	6
0	7772	181753.307980984351	7
0	7774	181865.463001393982	6
0	7779	181912.041187261467	5
0	7792	182119.976039912885	4
0	7817	182603.032533869446	5
0	7819	182700.889304963176	4
0	7824	182756.665405218413	5
0	7826	182769.93719319772	6
0	7844	183223.002767724221	5
0	7853	183489.379927330919	4
0	7858	183515.275235151177	3
0	7867	183667.235313516444	2
0	7888	184391.152646431037	1
0	7901	184568.219889265721	0
0	7932	184965.566692460845	1
0	7942	185407.040540852678	2
0	7944	185453.275554640135	3
0	7958	185843.620903113093	4
0	7960	185929.184218683352	3
0	7969	185965.847189522177	4
0	7971	185970.358821803815	5
0	7977	186027.315456613333	4
0	7990	186181.277468216842	3
0	7995	186254.018220373012	4
0	7997	186441.733153357537	3
0	8002	186494.069860217398	2
0	8015	186838.742093370368	1
0	8032	187108.972979896924	2
0	8038	187190.678423095051	3
0	8040	187221.770889956124	4
0	8046	187517.663645713957	3
0	8059	187593.393404794162	2
0	8064	187640.47166437011	1
0	8069	187809.712907349058	2
0	8071	187832.980718751578	3
0	8081	188043.64328679386	2
0	8094	188183.128984923162	3
0	8100	188227.749418952575	2
0	8105	188340.293404883475	3
0	8107	188385.579926178251	4
0	8109	188551.037519904044	5
0	8115	188591.721171075484	6
0	8117	188746.034505854936	7
0	8119	188752.288310791216	8
0	8125	188850.315241937762	7
0	8130	188861.871557013204	6
0	8139	188931.655069000455	5
0	8144	189035.261923334522	6
0	8166	189589.836719893923	5
0	8187	190129.832578127509	4
0	8200	190475.995255976351	3
0	8213	190842.878600546232	2
0	8218	190850.264574599689	1
0	8223	190955.967519760584	2
0	8233	191234.888718680789	3
0	8235	191247.572640917143	4
0	8237	191258.618288376442	3
0	8246	191353.867091362601	2
0	8251	191419.96235454055	3
0	8257	191611.024791264049	2
0	8266	191645.802419343719	3
0	8272	191791.411981701287	2
0	8285	191941.025134251527	1
0	8298	192147.189342386457	0
0	8303	192192.353828344806	1
0	8305	192307.786254923774	2
0	8307	192310.314127940829	3
0	8313	192414.118729277882	2
0	8318	192425.294409928149	1
0	8335	192805.992019644646	2
0	8337	192894.752737216088	1
0	8342	192900.018704385571	0
0	8363	193304.138441150171	1
0	8365	193373.489712481226	2
0	8371	193495.668030941002	1
0	8392	193777.062697013146	0
0	8432	194499.741131502041	1
0	8434	194612.43802198666	2
0	8436	194633.044334614865	3
0	8438	194727.001006088497	2
0	8451	194940.818771136231	1
0	8456	194950.614103787653	0
0	8469	195539.341421778561	1
0	8479	195711.424577684216	0
0	8499	196178.38943114664	1
0	8501	196299.297851965227	2
0	8503	196300.131367489042	1
0	8508	196321.37685805544	2
0	8514	196364.498472023532	3
0	8524	196634.848586922891	4
0	8526	196683.609459098838	5
0	8532	196827.732543951139	6
0	8534	196863.993565050755	7
0	8540	197125.869961605482	6
0	8549	197199.364190220179	5
0	8554	197510.152391308062	4
0	8563	197740.264778841578	3
0	8572	197861.737437366786	2
0	8581	197900.28377772286	3
0	8587	198023.89542739939	2
0	8596	198290.267775220013	3
0	8606	198479.51197852129	2
0	8611	198556.813539587838	3
0	8613	198562.706448451531	4
0	8619	198766.746253266278	3
0	8624	198982.047150455526	4
0	8638	199147.277419468995	5
0	8640	199225.250671283417	4
0	8645	199266.055377234065	3
0	8654	199332.188695951261	4
0	8664	199669.750007942431	5
0	8670	199840.321706763747	4
0	8679	200217.766832002514	3
0	8684	200219.036577438323	4
0	8690	200246.989406740801	5
0	8692	200266.084522711888	6
0	8706	200484.337248094049	7
0	8720	200632.472768010206	8
0	8722	200659.566009488248	7
0	8735	200966.234535317645	8