version 2
run Iteration-30-20200521-09:52:29-67028
attr configname Iteration
attr datetime 20200521-09:52:29
attr experiment Iteration
attr inifile omnetpp.ini
attr iterationvars "$i=3, $j=6, $0=15-(3+6)"
attr iterationvarsf i=3,j=6,15-(3+6)-
attr measurement "$i=3, $j=6, $0=15-(3+6)"
attr network Network
attr processid 67028
attr repetition 0
attr replication #0
attr resultdir results
attr runnumber 30
attr seedset 30
itervar i 3
itervar j 6
param **.resourcePool.amount 3
param **.resourcePool1.amount 6
param **.resourcePool2.amount 15-(3+6)
param **.source.interArrivalTime exponential(6min)
param **.delay.delay uniform(4min,28min)
param **.delay1.delay uniform(10min,28min)
param **.delay2.delay uniform(4min,16min)
param **.allocate.resourceModuleName "\"Network.resourcePool\""
param **.allocate1.resourceModuleName "\"Network.resourcePool1\""
param **.allocate2.resourceModuleName "\"Network.resourcePool2\""
param **.deallocate.resourceModuleName "\"Network.resourcePool\""
param **.deallocate1.resourceModuleName "\"Network.resourcePool1\""
param **.deallocate2.resourceModuleName "\"Network.resourcePool2\""
param **.router.randomGateIndex "uniform(0, 1) > 0.2 ? 0 : 1"

vector 0 Network.allocate queueLength:vector ETV
attr interpolationmode sample-hold
attr title "queue length, vector"
vector 1 Network.allocate1 queueLength:vector ETV
attr interpolationmode sample-hold
attr title "queue length, vector"
vector 2 Network.allocate2 queueLength:vector ETV
attr interpolationmode sample-hold
attr title "queue length, vector"
vector 3 Network.sinkStat lifeTime:vector ETV
attr interpolationmode none
attr title "lifetime of arrived jobs, vector"
attr unit s
vector 4 Network.sink lifeTime:vector ETV
attr interpolationmode none
attr title "lifetime of arrived jobs, vector"
attr unit s
0	0	0	0
0	47	3220.82958811685	1
0	49	3290.964630685694	2
0	55	3448.128607420616	1
0	60	3573.766733123675	2
0	66	3828.987502887132	1
0	71	4097.96099323524	2
0	73	4131.795515695376	3
0	75	4150.067280316744	2
0	84	4226.561414453318	3
0	90	4434.302543102198	2
0	95	4474.902001276341	3
0	97	4671.97789129803	2
0	102	4760.791346094005	1
0	127	5196.076617980638	2
0	145	5413.731705605271	1
0	150	5467.399854341317	2
0	152	5477.114530923182	3
0	162	5817.881643222664	2
0	167	5975.160489377011	3
0	169	6059.12306390553	2
0	174	6139.775830449735	3
0	176	6195.776848740163	2
0	181	6201.180924511047	3
0	191	6376.863832166545	4
0	193	6397.878276844881	5
0	195	6544.877919365649	6
0	197	6654.637099902578	7
0	203	6980.419458178739	8
0	213	7116.002787335994	7
0	218	7117.216717408765	8
0	220	7144.598894528207	9
0	230	7218.940824045234	8
0	235	7259.871381865834	7
0	244	7575.57767211171	8
0	250	7670.89119570631	7
0	259	7882.00195651828	8
0	261	7950.998531615727	7
0	274	8144.671622311845	8
0	288	8425.979012919955	7
0	297	8598.157876925563	6
0	310	8697.454325648229	7
0	312	8961.019589773439	8
0	318	9154.667581653588	7
0	327	9231.886836162987	6
0	340	9508.984494144117	5
0	345	9632.904848279343	6
0	351	9920.54115623086	5
0	364	10182.936461772647	6
0	366	10216.872847462093	5
0	371	10353.601944728973	4
0	376	10374.808722938649	5
0	378	10684.386678235645	6
0	380	10687.639761223787	7
0	402	11048.158220924654	8
0	408	11060.21065367687	7
0	417	11394.599667512343	8
0	419	11432.944975221735	9
0	421	11442.539928229546	8
0	426	11444.215451547593	9
0	428	11451.931680402134	10
0	430	11475.490921883278	9
0	443	11558.794383392035	10
0	445	11563.843576789001	11
0	455	11722.877547393528	12
0	461	11996.183333629763	11
0	466	12010.798364489558	10
0	471	12058.818966248501	11
0	477	12179.665545827523	12
0	479	12249.752816081953	13
0	485	12586.797366662316	12
0	494	12887.576728112283	11
0	499	12970.796156150667	12
0	505	13059.671621544652	11
0	510	13075.899356314933	10
0	519	13156.201619395562	11
0	521	13174.915125000129	12
0	527	13248.685213328158	13
0	529	13344.28244005739	12
0	538	13462.361381492354	13
0	544	13621.499011813097	12
0	553	13783.312889570391	11
0	562	13904.605412011453	12
0	564	13950.033462225978	13
0	578	14191.91890356133	12
0	599	14376.900876744869	11
0	612	14768.574762678139	10
0	617	14826.548183096794	11
0	619	14832.155811583419	12
0	621	14858.016063296471	13
0	623	14886.444103317356	12
0	632	15029.536449873711	13
0	634	15202.039155548804	12
0	643	15239.679530069323	13
0	649	15354.099317289176	12
0	654	15355.472550923026	11
0	679	15822.280326856666	10
0	684	15871.083334627813	11
0	686	15983.451588125921	10
0	703	16271.586898693141	11
0	709	16345.935110773763	12
0	715	16469.534944565988	11
0	724	16572.99076760489	10
0	733	16693.950367516436	11
0	739	16826.833754705883	12
0	741	16883.366903927289	13
0	743	17032.074833596147	12
0	748	17036.653706997392	13
0	766	17409.534367433184	12
0	771	17419.401733400141	13
0	785	17664.436164743486	12
0	802	18152.277425749933	13
0	804	18201.772613398018	12
0	829	18569.49977678249	11
0	838	18719.611019152837	12
0	840	18830.467319934064	11
0	845	19161.933081420161	10
0	850	19181.200066687885	11
0	852	19184.061933819553	12
0	854	19195.423365695119	13
0	856	19205.538725702459	12
0	861	19252.677887218631	13
0	875	19559.281040066876	12
0	884	19738.141525968197	11
0	889	19785.423096936582	12
0	899	20151.702684471407	11
0	916	20449.192062763864	10
0	921	20593.956503680542	11
0	935	20746.096068715822	12
0	937	20844.340377301505	13
0	947	21347.633516065064	12
0	956	21513.740430707135	11
0	973	21799.254615699643	12
0	975	21981.684773600096	11
0	980	22138.237563306489	10
0	993	22404.222503814053	11
0	999	22614.643162436071	10
0	1008	22682.063656231124	11
0	1010	22697.179870043053	12
0	1016	23101.476296798699	13
0	1018	23180.50839075314	14
0	1024	23293.139371819082	13
0	1033	23358.152274934942	12
0	1038	23380.007104510465	11
0	1043	23540.447968403666	12
0	1049	23989.665942649794	13
0	1067	24391.70830122977	12
0	1076	24410.009205872217	11
0	1081	24549.251871503178	10
0	1086	24661.712400552161	11
0	1092	24779.017903433491	12
0	1094	24912.386048997198	13
0	1104	25042.645844207319	14
0	1110	25065.06382270137	15
0	1120	25781.22037080119	14
0	1125	25783.530833943183	13
0	1138	26021.19611507583	12
0	1147	26365.046774545492	13
0	1153	26534.53002778429	14
0	1155	26547.830775212614	15
0	1157	26568.14251323233	14
0	1166	26671.960031857361	15
0	1176	26759.168281614069	14
0	1181	27091.553360855574	13
0	1198	27563.243833238045	14
0	1204	27679.342010263763	15
0	1218	28049.289869228402	14
0	1223	28096.261486778273	15
0	1225	28163.820671565651	16
0	1227	28328.756253121788	15
0	1232	28372.902111088437	16
0	1234	28435.440070762519	15
0	1239	28715.456424824182	14
0	1252	29181.295711556474	13
0	1269	29551.957441316737	14
0	1271	29599.684339313204	13
0	1280	29901.211761990587	12
0	1285	29978.96956249922	11
0	1290	30005.873246587102	10
0	1307	30286.267981684251	11
0	1313	30458.085709387189	12
0	1315	30749.87825066785	11
0	1328	30873.89110169401	12
0	1334	31036.965397692506	11
0	1343	31076.336128782116	12
0	1345	31104.510965173387	13
0	1351	31316.259799970681	12
0	1364	31708.594577516548	13
0	1370	31826.310933164595	14
0	1380	31935.612217633421	13
0	1385	31981.199233913819	12
0	1390	32067.036197379689	13
0	1400	32251.321929021175	12
0	1405	32259.919829400175	13
0	1419	32661.347267127816	12
0	1428	32695.214614419634	11
0	1437	33060.303599955539	10
0	1442	33111.446181832249	9
0	1455	33322.342552976014	10
0	1465	33661.029242481531	11
0	1467	33674.935734765629	10
0	1472	33738.368596119703	11
0	1486	34170.631528108601	10
0	1499	34436.437282686843	11
0	1509	34616.265190968926	12
0	1515	34736.205607725675	11
0	1524	34776.202604103054	12
0	1534	35048.63889305029	13
0	1536	35161.77281514744	12
0	1545	35479.742133993959	13
0	1547	35490.626877493445	12
0	1552	35539.866229070718	11
0	1565	35850.913947879562	12
0	1571	35949.232532406712	13
0	1573	35962.425913745563	12
0	1578	36052.621318719289	13
0	1584	36197.735872447174	14
0	1590	36479.257585739363	15
0	1592	36512.710537916286	16
0	1594	36660.40352571541	17
0	1596	36882.784046291594	16
0	1609	37013.744497223193	15
0	1614	37065.739053938864	16
0	1616	37224.513614628662	17
0	1630	37618.13878470103	16
0	1635	37636.491916502899	17
0	1637	37745.281057081406	16
0	1646	37854.631338653479	17
0	1648	37871.388734018555	18
0	1650	37919.617116497855	17
0	1659	38425.254186560837	18
0	1669	38689.922239071125	17
0	1682	39240.324581356673	18
0	1684	39315.622760279976	19
0	1686	39333.932636178319	18
0	1691	39339.759626360636	17
0	1708	39474.143810677025	18
0	1710	39522.382448137927	19
0	1720	39927.305355331296	18
0	1729	39977.325686937632	19
0	1731	39984.325135807298	20
0	1733	39990.80629819233	21
0	1735	40227.278601311701	22
0	1737	40374.266321883918	23
0	1743	40510.449323775273	22
0	1748	40511.107380778141	23
0	1758	40760.359110106372	24
0	1760	40780.211060068791	23
0	1765	40855.019755287463	22
0	1774	41010.101816030245	21
0	1783	41209.133604041522	20
0	1792	41386.56831171214	19
0	1809	41632.514988816679	20
0	1815	41824.12455739755	19
0	1820	41957.692693883686	20
0	1822	42039.73546981053	21
0	1824	42059.460882530832	22
0	1826	42069.366822264379	21
0	1835	42131.964461850028	20
0	1852	42348.845523097972	21
0	1858	42486.545380538696	20
0	1867	42530.763685316518	21
0	1873	42800.526943581999	22
0	1875	42801.412035770005	21
0	1880	42827.06312540769	20
0	1885	42856.662349028346	21
0	1899	43215.070220081502	20
0	1908	43369.244892420273	19
0	1917	43590.392060475244	20
0	1923	43694.42841149717	19
0	1928	43698.869290813191	20
0	1950	44129.339287060372	21
0	1956	44200.667619093543	20
0	1961	44210.125640703732	19
0	1982	44667.670672422642	18
0	1987	44803.30248576781	19
0	1989	44807.936380328636	18
0	1994	44827.634067680782	19
0	1996	44860.137681316597	20
0	1998	44967.908026514637	21
0	2004	45054.449672985428	22
0	2006	45073.529893566726	23
0	2008	45123.618633410329	22
0	2037	45832.926260999626	21
0	2050	46170.291069604667	22
0	2052	46173.98638337701	21
0	2073	46419.54360873441	20
0	2078	46625.561292730598	21
0	2080	46733.43397252652	22
0	2090	47175.030573988359	21
0	2095	47187.029125868227	22
0	2101	47341.202536768502	21
0	2106	47369.82094676749	22
0	2112	47417.171069456631	21
0	2121	47630.701542419485	22
0	2123	47661.732155912382	23
0	2125	47687.024199599426	22
0	2130	48078.586554594132	23
0	2136	48194.639604134084	24
0	2146	48480.634937755054	23
0	2151	48582.785542047367	24
0	2157	48866.277702710027	23
0	2170	48883.837440023225	22
0	2175	49148.610753922945	21
0	2196	49334.995237896245	20
0	2201	49457.795479969341	21
0	2211	49949.044505826419	20
0	2216	49992.132199115818	21
0	2230	50163.178568629915	20
0	2247	50582.776703508597	19
0	2252	50630.13057165424	20
0	2258	50813.946925041568	21
0	2264	50870.758051162953	20
0	2273	50929.72275080913	21
0	2275	51144.112004474516	22
0	2277	51193.051344713387	23
0	2279	51239.416338289183	22
0	2288	51367.833281665331	21
0	2293	51619.668908788259	20
0	2298	51641.26321198666	21
0	2308	51750.331240412749	22
0	2310	51820.092882732495	23
0	2324	52300.908852841224	24
0	2342	52575.998289519948	23
0	2355	52825.530755467004	22
0	2360	53221.383364908951	23
0	2362	53274.214756636317	22
0	2371	53585.076805388923	21
0	2376	53681.046096414885	22
0	2386	53713.233928739316	21
0	2391	53823.8854202348	22
0	2393	53886.583623560173	21
0	2402	53944.253661792348	22
0	2408	53987.778758036246	23
0	2410	54220.930716590983	22
0	2419	54407.455423734003	23
0	2421	54490.002948342259	22
0	2430	54637.911160162873	21
0	2443	54874.362976446374	22
0	2445	55010.677122163545	23
0	2447	55124.636290919883	24
0	2449	55152.963078441126	23
0	2454	55220.568212683905	24
0	2456	55232.833258917923	23
0	2469	55319.287705993603	24
0	2475	55512.626694230573	25
0	2489	55885.578612571222	26
0	2507	56180.251372068412	25
0	2512	56187.716526797409	24
0	2521	56502.522024931414	23
0	2530	56876.346903949268	22
0	2535	56920.608921917183	21
0	2552	57306.536269942326	20
0	2557	57350.467582567031	19
0	2562	57522.301546377035	20
0	2568	57701.334366969056	19
0	2581	57870.317960726125	18
0	2594	58015.666039495952	17
0	2599	58017.901440182895	18
0	2609	58421.35181722605	19
0	2615	58477.055124504026	20
0	2621	58633.0377855882	19
0	2634	59073.506962517304	18
0	2643	59196.834369909977	19
0	2645	59258.972470652267	20
0	2659	59467.613239887923	21
0	2661	59479.269938378818	20
0	2674	59595.511055161846	21
0	2688	59925.171526915617	20
0	2697	60100.01515474021	19
0	2702	60105.96011710356	18
0	2711	60434.372520440551	19
0	2713	60465.099553812859	20
0	2715	60501.325201925855	21
0	2721	60690.384625026506	22
0	2735	60925.56817188346	23
0	2741	60948.901521163089	22
0	2750	61384.863883724649	23
0	2760	61548.137292920835	22
0	2769	61650.546877904232	21
0	2778	61878.889245859571	20
0	2783	61957.725902133032	21
0	2785	62081.444045373085	22
0	2787	62181.747960426982	23
0	2793	62303.852293527122	22
0	2798	62420.260342587103	23
0	2800	62451.444807111509	22
0	2805	62544.176430860562	21
0	2814	62578.156567887618	22
0	2816	62882.253132844372	21
0	2825	62943.330976811273	22
0	2827	62960.460506786759	23
0	2833	63045.088097563382	22
0	2838	63103.481072908031	23
0	2848	63241.604170585079	22
0	2853	63282.181196569689	21
0	2857	63345.953420055858	22
0	2859	63375.898785515126	21
0	2872	63479.014948456875	22
0	2883	63695.68612613718	21
0	2888	63869.571783303507	20
0	2905	64102.013383096453	19
0	2922	64424.055628723689	18
0	2931	64470.662703606573	19
0	2941	64565.13780999522	20
0	2963	65056.641165827947	21
0	2969	65224.766924975809	20
0	2974	65236.349117760624	21
0	2980	65318.699492635233	20
0	2993	65394.300156406351	19
0	3002	65546.632421986664	20
0	3004	65664.681145063039	19
0	3013	65789.467181710737	20
0	3015	65879.226474597343	19
0	3020	65882.304429532988	18
0	3029	66412.545124999471	19
0	3043	66674.542973394692	20
0	3045	66677.016188426312	19
0	3050	66723.857329025158	18
0	3063	66881.591606762927	19
0	3085	67236.475983186062	18
0	3090	67248.533564671768	19
0	3092	67313.328088208326	18
0	3101	67478.271005162997	17
0	3114	67854.706799186059	16
0	3119	67917.201839050941	17
0	3121	67942.669237153632	16
0	3138	68229.576670004423	15
0	3143	68324.417313286594	16
0	3145	68364.130724392124	15
0	3149	68440.980116160402	16
0	3156	68611.40902325368	17
0	3162	68668.088064352078	16
0	3179	69039.046368671949	15
0	3196	69201.437221886618	14
0	3205	69316.085622488273	15
0	3211	69330.94482315033	16
0	3229	69802.839167549499	15
0	3242	70112.26860957522	14
0	3247	70171.227868756393	15
0	3249	70297.177535071565	16
0	3255	70349.802026441329	17
0	3261	70502.254135776068	18
0	3267	70648.258048340706	19
0	3273	70711.028982399399	18
0	3282	70752.567532630665	17
0	3287	70827.153210400828	16
0	3296	70997.914584619872	17
0	3310	71577.177285527389	18
0	3324	72119.980828448423	17
0	3329	72122.217138296361	16
0	3334	72188.27438420192	17
0	3344	72359.656942719621	16
0	3349	72416.928925943719	17
0	3351	72544.46404738514	18
0	3353	72609.651687085283	19
0	3355	72964.972175319506	20
0	3357	72999.341827044291	19
0	3362	73013.30942718614	18
0	3367	73224.145163155955	19
0	3369	73330.829347755977	20
0	3371	73343.394786900277	19
0	3392	73865.695471203322	18
0	3401	73916.736900604555	17
0	3406	74148.244132590433	18
0	3412	74171.080299364431	17
0	3421	74286.745924517327	18
0	3423	74353.033329991991	17
0	3436	74531.571100509061	18
0	3438	74556.352089069077	17
0	3447	74923.806719907789	18
0	3457	75017.031720539922	17
0	3462	75047.824655641587	18
0	3464	75120.781603721703	19
0	3474	75328.887596112191	20
0	3476	75396.73004769723	19
0	3485	75639.921499153966	18
0	3502	75810.365691132137	17
0	3507	75823.251538823893	18
0	3509	75980.116375842992	19
0	3515	76134.823262904533	20
0	3525	76396.116861752652	21
0	3527	76424.642931530281	20
0	3532	76483.39133292287	19
0	3541	76687.233946643063	18
0	3546	76768.774292204405	19
0	3552	76855.761177735432	18
0	3577	77212.304802335092	17
0	3606	77996.390703840548	16
0	3627	78329.926701366373	17
0	3629	78369.967147083982	16
0	3638	78550.111155907912	17
0	3644	78860.594578034469	16
0	3653	79468.314883531446	17
0	3655	79483.770928865666	16
0	3668	79718.023085230991	15
0	3673	79852.016616940581	16
0	3683	80427.136156357118	15
0	3688	80501.411667938716	16
0	3698	80729.675544291052	17
0	3700	80747.395814671123	18
0	3706	80943.010611846391	19
0	3708	81023.168422876293	18
0	3713	81141.487035201892	17
0	3722	81487.494246087262	16
0	3735	81801.735579445508	17
0	3737	81993.298621820316	16
0	3742	82184.867919272179	15
0	3763	82755.055631905088	14
0	3768	82798.660961707016	15
0	3782	83011.177864634631	16
0	3784	83014.180987533552	17
0	3794	83309.429408917234	16
0	3803	83375.344106651137	15
0	3808	83461.703681124742	14
0	3813	83519.566304801581	15
0	3819	83762.403494411179	16
0	3829	84258.300009416447	15
0	3842	84583.788693494389	14
0	3859	84787.087211905415	13
0	3864	85089.687227106879	12
0	3869	85104.840954542566	13
0	3871	85318.997689271377	12
0	3884	85755.844206558572	11
0	3893	85922.183705633378	12
0	3899	86046.822611491522	13
0	3901	86079.009577082437	14
0	3907	86308.750531001384	13
0	3920	86483.794845662306	12
0	3929	86663.778526717829	11
0	3946	87234.33060830761	10
0	3959	87474.915479134275	11
0	3969	87731.192176927711	12
0	3971	87779.86127449931	13
0	3973	87794.297316966946	12
0	3978	87900.148570621418	11
0	3991	88233.677340930695	10
0	4004	88483.353999390493	9
0	4009	88502.043717278535	8
0	4030	89205.879559973287	7
0	4035	89233.645550180628	8
0	4041	89461.72287344783	7
0	4054	89573.711270264576	6
0	4079	90318.866596727858	5
0	4096	90545.789303788948	4
0	4101	90780.75528364479	3
0	4106	90909.149080524295	4
0	4108	90951.20239449631	5
0	4114	91044.956516511923	6
0	4116	91075.20155607937	7
0	4130	91867.314012146781	6
0	4135	91917.87867390554	5
0	4152	92145.045942625398	4
0	4173	92962.66960957304	5
0	4179	93101.689182920683	6
0	4189	93407.354027315269	5
0	4194	93513.20555276083	6
0	4196	93582.616378562558	5
0	4205	93789.405690020318	4
0	4210	94101.924779362271	3
0	4215	94452.538400036698	4
0	4225	94551.079468848217	3
0	4230	94766.006745866726	2
0	4235	94799.893001607117	3
0	4237	94813.379632659778	4
0	4243	94969.179675403551	5
0	4249	95185.219780886579	4
0	4258	95387.849945163722	3
0	4267	95424.795817621528	4
0	4273	95666.436270802948	5
0	4283	95870.25010593086	4
0	4292	95935.762532698024	3
0	4305	96186.753575525473	2
0	4310	96314.560307002063	1
0	4315	96329.985967013111	2
0	4317	96486.421210843264	3
0	4331	96946.570512828465	4
0	4337	97057.848329925943	3
0	4342	97216.530698559473	2
0	4363	97600.052640620514	3
0	4365	97622.503112809759	4
0	4367	97657.047672456498	3
0	4376	97792.586347842622	2
0	4393	98049.104575332312	3
0	4395	98166.03942914276	4
0	4397	98409.056195503468	3
0	4410	98653.165632209967	2
0	4419	98827.277954629058	1
0	4432	99076.969920964945	0
0	4437	99200.764842317973	1
0	4443	99260.710045191655	2
0	4445	99309.775679906702	3
0	4455	99542.688552620777	4
0	4457	99578.100880741368	3
0	4462	99670.959471436251	2
0	4467	99780.7342392461	3
0	4469	99784.259274732498	4
0	4479	100128.237495979661	3
0	4492	100173.267387143014	4
0	4506	100580.837793262911	5
0	4512	100825.838910660933	4
0	4525	100946.649032505263	3
0	4530	101099.161649575881	4
0	4532	101133.737322031086	5
0	4546	101338.65273598432	4
0	4555	101769.15469781499	3
0	4560	101781.016031637083	2
0	4577	102156.280419444379	3
0	4583	102614.72597692872	4
0	4585	102643.910511581594	3
0	4590	102748.604225971176	4
0	4604	103149.549936897348	3
0	4617	103376.003114441444	2
0	4626	103470.909321232134	1
0	4647	104427.617275873233	0
0	4758	109762.910771981561	1
0	4764	109966.13316077533	2
0	4766	110133.808446245598	3
0	4772	110231.787742640063	2
0	4777	110261.121112681766	1
0	4782	110359.133897586879	2
0	4784	110425.785289964499	3
0	4786	110528.324103240259	4
0	4788	110561.090670727034	3
0	4793	110744.336490777791	2
0	4798	110770.555315693449	3
0	4800	110947.406823213945	4
0	4802	111106.538246612236	3
0	4811	111342.437372801364	2
0	4816	111580.180962319635	3
0	4830	111747.77577445817	4
0	4836	111910.92551393046	3
0	4845	111978.334986670809	4
0	4855	112293.398931943027	5
0	4865	112437.252767957588	4
0	4870	112528.236147833591	5
0	4872	112686.251512694344	4
0	4881	112764.940220897556	3
0	4886	113112.413761451951	4
0	4892	113124.068291500052	3
0	4897	113256.41450990895	4
0	4899	113260.382049980745	3
0	4904	113334.737292773614	4
0	4910	113687.000326772691	3
0	4919	113837.016169095363	4
0	4925	114185.149275116464	3
0	4930	114287.307647879407	2
0	4955	114405.559350100817	1
0	4972	114821.991039158899	2
0	4974	114838.372605220007	3
0	4984	114908.239807426771	2
0	4993	115043.723007180851	3
0	4995	115232.605837784549	2
0	5008	115475.067472982392	1
0	5017	115842.6926448918	0
0	5026	115879.028706759387	1
0	5032	116002.598302590832	0
0	5052	116292.901704109834	1
0	5054	116314.526819919707	0
0	5067	116729.735448700704	1
0	5077	116807.35514557887	2
0	5079	116980.593825563701	3
0	5081	117030.777814093217	2
0	5090	117117.699493720687	1
0	5107	117331.848081124486	0
0	5127	117844.040772943201	1
0	5129	117876.221561821009	2
0	5139	118049.07621954722	3
0	5157	118516.030362650837	4
0	5159	118572.272090747182	3
0	5164	118582.050916592762	2
0	5177	119009.503595416905	1
0	5194	119392.328924726122	2
0	5196	119489.545015876652	1
0	5209	119848.393804494813	2
0	5219	119999.770564868276	1
0	5228	120147.013734284029	0
0	5358	123957.026148427078	1
0	5360	123987.592606158649	0
0	5661	134759.1175803801	1
0	5663	134808.599898111011	0
0	5679	135084.392655750541	1
0	5681	135192.112445207922	0
0	5690	135719.859831832798	1
0	5704	135949.482842426683	0
0	5721	136524.484684627745	1
0	5723	136559.801650949017	0
0	5728	136740.643799633536	1
0	5734	136856.516533019631	0
0	5849	140437.129268128913	1
0	5851	140449.740885091451	0
0	5882	141518.854392951246	1
0	5888	141578.705459924649	2
0	5890	141700.875355329304	3
0	5896	141914.590691601835	4
0	5898	142039.853092958656	3
0	5903	142247.638586004114	2
0	5908	142366.454064590362	1
0	5913	142616.491890651023	0
0	5949	143388.448107130913	1
0	5951	143429.573069404742	2
0	5957	143498.144596604059	3
0	5967	143720.170599245738	4
0	5969	143824.738092911867	3
0	5986	144082.481865981424	4
0	5988	144181.793139752781	3
0	5993	144229.879213579549	4
0	5995	144239.242535886384	5
0	6001	144787.112197601764	4
0	6010	144991.004016963271	3
0	6015	145033.235904076664	2
0	6020	145086.691385296187	3
0	6026	145320.122957234708	2
0	6035	145474.047124316039	3
0	6037	145521.537887009895	4
0	6039	145530.742985129711	5
0	6049	145716.809051579236	6
0	6051	145724.069491949713	5
0	6064	146172.102082585517	6
0	6066	146199.692990486947	5
0	6071	146207.290418618886	4
0	6092	146572.924140045015	3
0	6101	146720.818142259706	4
0	6107	146840.033907523077	5
0	6117	147121.247805309331	4
0	6130	147388.450641171602	3
0	6135	147721.9459291971	2
0	6144	147910.883407860342	3
0	6154	148283.625920372758	4
0	6160	148633.119234243003	3
0	6165	148699.860021573341	2
0	6170	148708.489542347816	1
0	6191	149217.639001739291	2
0	6193	149245.011141615694	3
0	6195	149255.808352955478	4
0	6197	149312.778066594729	5
0	6207	149435.651209620265	4
0	6212	149702.08720988181	3
0	6217	149802.065380398033	4
0	6235	150287.732143689728	3
0	6240	150303.76216291037	2
0	6249	150683.554681454635	1
0	6258	150753.258417123524	0
0	6263	150915.808944385778	1
0	6273	150981.431371015934	0
0	6320	152131.790189432342	1
0	6334	152234.619822851611	2
0	6336	152280.608809505927	3
0	6338	152309.626106624929	2
0	6359	152946.470235484144	1
0	6364	152995.685594835399	0
0	6425	154373.012214827852	1
0	6443	154895.852830858677	0
0	6554	157503.586532297617	1
0	6560	157601.925719520178	2
0	6562	157787.656692844598	1
0	6571	157893.572259462642	0
0	6704	161478.918750752076	1
0	6706	161593.315726548814	2
0	6708	161795.730099473638	1
0	6713	161850.73348563834	2
0	6715	161866.757383657054	3
0	6721	162042.002025798881	4
0	6723	162049.426137262608	5
0	6725	162060.350242049879	4
0	6734	162324.560270356264	3
0	6739	162343.366986457748	2
0	6752	162993.16349521478	3
0	6758	163128.10366484298	4
0	6760	163260.18880393933	5
0	6766	163296.976584165149	6
0	6768	163325.508268007523	5
0	6773	163357.528071012838	4
0	6790	163644.435751484957	3
0	6799	163789.402264414494	4
0	6801	163866.092412832939	5
0	6807	163912.923432309671	4
0	6812	164365.116492789729	3
0	6825	164494.883792168176	4
0	6827	164585.821036265678	3
0	6832	164801.406216677769	2
0	6857	165178.68756630483	1
0	6866	165310.187737810206	2
0	6868	165541.187924118963	1
0	6881	165670.478230609723	2
0	6883	165771.78211124663	1
0	6888	165803.252689438191	0
0	6897	165931.500737617302	1
0	6907	166217.385714591927	0
0	6920	166296.867205343202	1
0	6926	166500.538998861357	0
0	6931	166501.212794280493	1
0	6933	166598.142183422374	2
0	6935	166625.978974983935	3
0	6949	166964.831017377105	2
0	6954	167010.292313480798	3
0	6956	167061.595670075602	2
0	6969	167463.384425576916	3
0	6971	167737.892228148777	4
0	6981	167846.14876058909	3
0	6994	168044.076836538061	2
0	7015	168442.077138927325	1
0	7020	168577.246661090738	0
0	7117	171910.21473563168	1
0	7119	171968.39769336065	2
0	7121	171970.24470191069	3
0	7123	172078.836411176138	2
0	7132	172201.339529512306	1
0	7137	172406.546941598766	0
0	7338	181445.999022385626	1
0	7340	181459.674931775022	2
0	7342	181472.256708788159	3
0	7344	181491.117345865092	4
0	7346	181539.792990487397	3
0	7355	181905.357182591337	4
0	7357	181999.737330144084	3
0	7366	182294.241972839189	2
0	7371	182588.168824794727	3
0	7373	182612.531740282059	2
0	7378	182734.267512736655	1
0	7387	183186.767409768284	0
0	7566	189691.342209749221	1
0	7572	189777.445445973234	2
0	7578	189949.992411106856	1
0	7591	190270.502271843836	2
0	7593	190476.779231316761	1
0	7598	190664.052061218704	0
0	7632	191983.610096300907	1
0	7638	192095.719690118443	0
0	7674	192568.866776551092	1
0	7676	192589.59621917514	2
0	7678	192785.386421121898	3
0	7696	193180.871693802076	2
0	7701	193206.53523987661	3
0	7715	193701.426537062003	4
0	7717	193724.419476267129	3
0	7722	193732.382190321099	2
0	7731	194010.95971090232	3
0	7733	194052.820054118531	2
0	7738	194101.100354599831	3
0	7740	194160.935259667662	4
0	7746	194398.508347620266	3
0	7751	194652.534373600977	2
0	7764	195038.025489652255	3
0	7774	195242.318980533808	2
0	7779	195364.046689738046	1
0	7784	195373.762670320469	0
0	7793	195550.622685154861	1
0	7803	195693.949186157614	0
0	7888	197286.396011636883	1
0	7898	197669.071796238534	0
0	7918	197920.649009950274	1
0	7920	198064.497078173338	0
0	7925	198071.157060456479	1
0	7927	198201.323852837197	0
0	7932	198201.984097350738	1
0	7938	198269.553191895273	2
0	7940	198318.286264971718	3
0	7950	198668.100165383775	2
0	7967	198922.140128501235	1
0	7976	199088.750647269301	0
0	7985	199241.856085836114	1
0	7987	199372.684779986851	0
0	7992	199478.718406173375	1
0	7994	199541.740917445977	0
0	7999	199655.375176316471	1
0	8017	200009.498568102829	0
0	8022	200183.640127303283	1
0	8032	200371.326184310495	0
0	8037	200467.250382658562	1
0	8063	200956.333518660655	2
0	8065	201003.560307467242	1
0	8074	201237.966640852503	0
0	8083	201283.080168982417	1
0	8085	201427.383436039566	0
0	8090	201512.157808786588	1
0	8096	201766.315896809577	0
0	8146	202703.407329319285	1
0	8160	202999.81724406663	2
0	8170	203201.562967035993	3
0	8172	203287.091728598355	2
0	8177	203340.163031048483	1
0	8190	203436.515824656554	2
0	8192	203443.187373409085	1
0	8197	203445.042554196885	2
0	8207	203708.568006381868	1
0	8212	203870.687232990963	2
0	8218	203986.963222946239	3
0	8224	204469.735655913167	2
0	8229	204476.197667657739	1
0	8238	204769.26432266879	0
0	8247	204866.518432215677	1
0	8249	204870.924070972214	2
0	8259	205216.839261178714	3
0	8261	205310.11430969254	4
0	8267	205324.537732503718	3
0	8280	205607.874088921129	2
0	8293	205784.204721318596	1
0	8298	205827.901175714615	2
0	8316	206288.400664108928	3
0	8318	206518.594864020664	4
0	8324	206544.989355206966	3
0	8329	206545.855017991775	2
0	8334	206688.64220661611	1
0	8343	206837.241897786075	0
0	8417	208957.618850842351	1
0	8423	209062.563839673465	2
0	8425	209064.931920303365	1
0	8430	209210.39710109911	0
0	8435	209219.770211628652	1
0	8437	209230.722520533481	2
0	8447	209634.662544301098	3
0	8453	209812.287796634281	2
0	8462	209949.563190436324	1
0	8471	210182.105138707796	2
0	8473	210251.59689976122	1
0	8478	210339.317319893838	2
0	8480	210387.986200037409	3
0	8482	210469.318922700799	2
0	8487	210485.380717255166	3
0	8497	210732.056596299966	2
0	8506	210819.103092561508	1
0	8511	211058.788480098035	2
0	8525	211379.886806883971	3
0	8527	211382.784421825839	4
0	8529	211461.639789099312	3
0	8546	211540.237565284928	2
0	8555	211663.767534111129	3
0	8561	211890.539314384604	2
0	8574	211962.084746977647	1
0	8579	211979.091283047666	2
0	8593	212268.232592629998	3
0	8599	212363.946724800094	4
0	8601	212375.341952374472	5
0	8603	212411.509252082492	6
0	8605	212559.519565942204	5
0	8610	212610.72304257288	4
0	8615	212622.966396358894	5
0	8617	212623.81564990648	6
0	8643	213376.924100870705	5
0	8648	213447.01231649365	4
0	8653	213560.240484179641	5
0	8659	213644.502177530886	6
0	8673	213767.416597375944	7
0	8675	214064.223645488763	6
0	8680	214211.08581366237	5
0	8685	214356.367791753475	6
0	8691	214400.158420661499	7
0	8697	214610.990395604034	6
0	8706	214758.246067484172	7
0	8708	214780.596741000677	8
0	8710	214855.398053127372	7
0	8715	214884.529308549031	8
0	8717	214999.15415840081	7
0	8726	215083.389552009118	8
0	8728	215151.617095713148	9
0	8730	215442.202684043308	8
0	8751	215731.003385159218	7
0	8756	215765.278074315039	8
0	8758	215820.469301453192	9
0	8764	215918.697366508162	8
0	8773	216192.812767771867	9
0	8775	216207.687470181517	10
0	8781	216272.42716973505	9
0	8790	216416.527974802975	10
0	8804	216631.909920518118	11
0	8814	216802.25478702321	10
0	8819	217019.883748313745	9
0	8824	217296.661895337545	8
0	8833	217361.165998432818	9
0	8855	217806.42240574912	10
0	8857	217907.288268523729	9
0	8862	218056.537981389086	10
0	8868	218434.988646134713	11
0	8878	218634.824904857536	10
0	8883	218704.216888482713	9
0	8892	219015.332102237602	8
0	8905	219441.443088295377	7
0	8922	220104.793210382081	6
0	8931	220183.619897572657	5
0	8940	220205.173765878224	4
0	8949	220503.72981653645	3
0	8954	220766.578745107197	2
0	8971	221093.608199416062	1
0	8976	221130.056092476019	2
0	8978	221143.567350835108	3
0	8984	221276.239285326422	4