version 2
run Iteration-13-20200521-09:51:35-55824
attr configname Iteration
attr datetime 20200521-09:51:35
attr experiment Iteration
attr inifile omnetpp.ini
attr iterationvars "$i=2, $j=1, $0=15-(2+1)"
attr iterationvarsf i=2,j=1,15-(2+1)-
attr measurement "$i=2, $j=1, $0=15-(2+1)"
attr network Network
attr processid 55824
attr repetition 0
attr replication #0
attr resultdir results
attr runnumber 13
attr seedset 13
itervar i 2
itervar j 1
param **.resourcePool.amount 2
param **.resourcePool1.amount 1
param **.resourcePool2.amount 15-(2+1)
param **.source.interArrivalTime exponential(6min)
param **.delay.delay uniform(4min,28min)
param **.delay1.delay uniform(10min,28min)
param **.delay2.delay uniform(4min,16min)
param **.allocate.resourceModuleName "\"Network.resourcePool\""
param **.allocate1.resourceModuleName "\"Network.resourcePool1\""
param **.allocate2.resourceModuleName "\"Network.resourcePool2\""
param **.deallocate.resourceModuleName "\"Network.resourcePool\""
param **.deallocate1.resourceModuleName "\"Network.resourcePool1\""
param **.deallocate2.resourceModuleName "\"Network.resourcePool2\""
param **.router.randomGateIndex "uniform(0, 1) > 0.2 ? 0 : 1"

vector 0 Network.allocate queueLength:vector ETV
attr interpolationmode sample-hold
attr title "queue length, vector"
vector 1 Network.allocate1 queueLength:vector ETV
attr interpolationmode sample-hold
attr title "queue length, vector"
vector 2 Network.allocate2 queueLength:vector ETV
attr interpolationmode sample-hold
attr title "queue length, vector"
vector 3 Network.sinkStat lifeTime:vector ETV
attr interpolationmode none
attr title "lifetime of arrived jobs, vector"
attr unit s
vector 4 Network.sink lifeTime:vector ETV
attr interpolationmode none
attr title "lifetime of arrived jobs, vector"
attr unit s
0	0	0	0
0	32	3354.465934174536	1
0	38	3892.305091644462	2
0	40	4121.27612362697	1
0	44	4130.944074340369	0
0	48	4261.716513706368	1
0	55	4411.491498664814	2
0	57	4539.097944290548	3
0	59	4920.058014980398	2
0	72	5244.315995565496	1
0	76	5388.576038543475	2
0	78	5410.650325551834	1
0	82	5635.959295091379	2
0	88	5848.744926473158	3
0	90	6021.225794060968	2
0	94	6120.994080684147	3
0	101	6629.631378077176	2
0	105	6761.742741270803	1
0	118	7261.384455739401	0
0	132	8198.46322672147	1
0	134	8427.113059424675	2
0	136	8438.785583605627	3
0	143	8791.339757738296	4
0	145	8853.697889513217	3
0	149	9149.104237088107	4
0	160	9481.764356365498	3
0	168	9509.520975715362	2
0	172	9894.302045493814	3
0	179	9973.210765589446	4
0	181	10357.848501288324	5
0	192	10639.820152717204	6
0	194	10796.835574342009	5
0	198	10897.788122710304	6
0	200	10920.012268564545	5
0	204	11160.029603346132	4
0	212	11294.938001027004	5
0	214	11337.508112463134	6
0	216	11570.462274431132	5
0	225	11785.925200978094	6
0	227	11902.687965360996	7
0	233	12249.235154278433	8
0	235	12412.862342244085	7
0	239	12569.911323522828	8
0	246	12987.584413567928	9
0	248	13015.236156090044	8
0	256	13208.137557324184	9
0	258	13241.665260320556	10
0	260	13413.371233526043	11
0	267	13691.062930155285	12
0	273	13975.576852208074	11
0	277	14153.667099020325	10
0	281	14223.888942707338	11
0	283	14313.378050757643	10
0	287	14553.785894914411	9
0	291	14640.996921141973	10
0	298	14994.601146366489	11
0	300	15032.032565094704	12
0	302	15335.61673516601	11
0	310	15483.133598423402	12
0	317	15542.397913021511	13
0	319	15583.280436835133	12
0	323	15612.840510574443	13
0	325	15929.221853671667	12
0	333	16511.450702829358	11
0	337	16802.631649962508	10
0	341	17173.452401189946	9
0	354	17570.645466541943	8
0	358	17588.148555301599	9
0	360	17803.572433965117	10
0	362	17990.67558547761	11
0	369	18189.303604069058	12
0	371	18215.002558334612	11
0	375	18265.572321463795	12
0	381	18508.428504467587	13
0	388	18956.585102213949	14
0	390	18961.09648207419	15
0	392	19019.825723415312	14
0	396	19180.556521034681	13
0	400	19709.081072564119	14
0	406	20139.176540589773	13
0	415	20336.867577118871	12
0	423	20652.329067244076	11
0	427	21102.346564216611	10
0	431	21218.615615694665	9
0	435	21384.355087634763	10
0	437	21385.236929712889	9
0	441	21567.540318536123	10
0	443	21633.298382367827	11
0	445	21730.385058834027	12
0	447	21745.07635725392	13
0	449	21821.592963842747	12
0	458	22070.823973353701	13
0	464	22714.917496210777	12
0	473	23220.157345589824	13
0	479	23449.912657423017	12
0	483	23607.582138246738	11
0	487	23760.668232286479	12
0	489	23975.364923812039	13
0	491	24044.937429002309	14
0	493	24137.935206620835	13
0	502	24504.891420735118	12
0	510	25007.385146907412	11
0	519	25495.703976468199	12
0	525	26020.284076800642	11
0	529	26157.374395011806	10
0	533	26165.838945848973	11
0	540	26207.510070308168	12
0	546	26566.109174666428	13
0	548	26710.508939764344	12
0	552	26737.328411459829	13
0	554	26745.117265775624	14
0	556	26775.878913257812	15
0	558	27224.228922745285	14
0	562	27230.297325952792	13
0	575	27852.142880169747	12
0	579	28161.97493340593	13
0	586	28562.444631486082	12
0	590	28591.496253827841	13
0	592	28708.620281287591	14
0	594	28944.995728602705	13
0	598	29189.759540760788	14
0	604	29521.417824236748	13
0	613	29998.299186481977	12
0	617	30056.271365760412	13
0	619	30201.333477708133	14
0	621	30261.323424701267	15
0	627	30467.127037253947	16
0	629	30575.445402226617	17
0	631	30600.642587349392	18
0	638	30892.225398516354	17
0	646	31230.324264681781	16
0	650	31391.539733616707	15
0	654	31487.174149872462	16
0	656	31578.845847534915	17
0	658	31649.259690894628	16
0	662	31859.895944931152	17
0	664	31933.091680428085	16
0	668	32019.779651075256	17
0	675	32221.794969869849	16
0	679	32291.681446983362	15
0	683	32615.159317805315	14
0	691	32840.610140605217	15
0	698	32932.842871492963	16
0	700	33424.945749512014	15
0	704	33442.143297473514	16
0	715	33949.442794612492	15
0	723	34649.772660127724	14
0	727	34978.594501970408	13
0	731	35155.201237383324	14
0	742	35652.614772393002	15
0	744	35683.075491278278	16
0	746	35750.881508574915	17
0	748	35939.582286426935	18
0	750	36288.731996259535	17
0	754	36412.811979075966	16
0	758	36595.170843617466	17
0	769	37294.530757909323	18
0	771	37387.561940396883	19
0	773	37424.899843221223	20
0	775	37465.202776139674	19
0	779	37699.972571937189	20
0	781	37724.078018172527	19
0	785	37796.033814467454	20
0	792	38041.672721538545	21
0	798	38511.864021031258	20
0	802	38537.94349014174	21
0	804	38554.377938382634	22
0	806	38986.5728982453	21
0	810	39065.86299808795	22
0	812	39092.404240596225	23
0	814	39255.145896097595	24
0	816	39287.898282466528	23
0	825	39605.228649262357	24
0	827	39620.603437242572	25
0	833	40230.184617481078	24
0	837	40353.063757224746	25
0	839	40374.506065530774	24
0	843	40416.405214790374	25
0	845	40532.713529428753	26
0	847	40719.582344343664	27
0	849	40812.042549536434	28
0	856	41020.481430636468	29
0	858	41073.204388838572	30
0	860	41078.688536046144	29
0	864	41705.609089276637	28
0	877	41874.250419122987	29
0	879	42316.612516542254	30
0	881	42318.408619782027	29
0	885	42387.935517672497	30
0	891	42514.044494285132	29
0	895	42642.318803045471	30
0	897	42677.513959465619	29
0	906	43045.477631664098	30
0	908	43159.431619523908	29
0	912	43235.301475020871	30
0	914	43335.517740871612	31
0	916	43385.927031095665	32
0	918	43450.424657074805	31
0	926	43575.588566205348	30
0	935	44323.314697093564	31
0	937	44380.354469223763	30
0	945	44690.753106704006	31
0	947	44906.38117572486	30
0	951	45558.128386801024	31
0	953	45774.052332407679	30
0	962	46195.139210207422	31
0	964	46232.816144193705	32
0	966	46265.371013498749	31
0	970	46463.42478135794	30
0	974	46739.169209200594	31
0	980	47049.741579505507	32
0	987	47820.524796015467	31
0	995	47879.665198564495	32
0	997	48075.54472876906	31
0	1001	48113.566446556594	30
0	1005	48307.490511490616	31
0	1007	48358.618433801037	32
0	1014	48875.892376928475	31
0	1018	48922.717064991972	32
0	1020	49396.240605772936	33
0	1026	49467.772407390906	34
0	1028	49522.318920207147	35
0	1030	49594.401763183101	36
0	1032	49597.267460218516	35
0	1036	49747.249413339492	34
0	1045	49992.700228689274	35
0	1047	50129.804116817613	36
0	1049	50424.799565358158	35
0	1066	51117.151666601468	36
0	1068	51170.577349915055	35
0	1072	51296.393517676554	36
0	1074	51723.329728532091	37
0	1076	51725.790876824978	38
0	1078	51832.258755697008	37
0	1087	52392.153048871156	36
0	1095	52445.917514367846	35
0	1099	52769.727136299645	36
0	1106	52887.168484215491	37
0	1108	53019.884295285141	38
0	1110	53087.481029956487	37
0	1118	53208.134481513765	38
0	1120	53243.213993945864	39
0	1122	53292.700204646286	38
0	1126	53462.598474434625	39
0	1133	53871.285379860396	40
0	1139	54283.505146383363	41
0	1141	54409.761867542453	42
0	1143	54473.15880890086	41
0	1147	54697.877664820069	42
0	1149	54784.087820930478	41
0	1153	54952.371313116399	40
0	1157	55111.65066805062	41
0	1164	55138.328205396089	42
0	1166	55395.263816910073	43
0	1168	55466.498671202806	42
0	1172	55556.05624535439	43
0	1174	55618.708232265689	44
0	1185	56109.940357050744	43
0	1193	56347.363285740909	42
0	1202	57128.349603281592	43
0	1208	57526.274269769487	44
0	1210	57582.047251769639	45
0	1212	57775.723318896142	44
0	1216	57998.000767475066	43
0	1225	58506.654036186748	44
0	1227	58754.894462509153	43
0	1240	59157.482007919696	42
0	1244	59283.561540229318	41
0	1248	59630.729078799659	42
0	1254	59763.543868890098	43
0	1256	59963.162044771804	44
0	1258	60028.16178698069	45
0	1260	60071.58000862067	46
0	1262	60176.099695113377	47
0	1264	60177.078844523874	46
0	1268	60184.092143348263	47
0	1270	60406.92413868576	46
0	1279	60913.095072568797	47
0	1281	61132.456441584288	48
0	1292	61468.879795438495	47
0	1296	61613.820704216811	48
0	1302	62027.453126182851	47
0	1306	62202.382209325274	48
0	1313	62321.323285246189	49
0	1315	62557.297121432008	50
0	1317	62809.763793340769	49
0	1321	62974.064112538136	50
0	1323	63088.889010684159	51
0	1329	63155.176536163387	50
0	1333	63668.501301287558	49
0	1342	63790.413187966371	50
0	1344	63818.095113618371	49
0	1348	63866.767654902062	50
0	1350	63868.475331442668	51
0	1352	64009.042087892622	52
0	1354	64056.700865915861	51
0	1362	64417.675752289736	52
0	1364	64489.839418598032	53
0	1366	64647.498541089288	54
0	1368	64787.259076867309	55
0	1370	65154.854556648877	54
0	1379	65257.737036926744	53
0	1383	65507.810207944568	54
0	1389	66244.069635456149	55
0	1391	66380.186882337627	54
0	1395	66396.106314166334	53
0	1408	66878.099810148838	54
0	1410	67064.871697901633	53
0	1414	67249.088679875632	54
0	1416	67415.840511946824	53
0	1420	67681.866796968577	52
0	1429	67981.329102591668	53
0	1431	67987.789001949439	54
0	1437	68046.92357633293	55
0	1439	68119.399958613321	56
0	1441	68338.932772419301	55
0	1445	68398.607854562048	56
0	1447	68410.313580996164	57
0	1449	68547.796803332816	58
0	1451	68598.625553705209	59
0	1453	68629.292275612041	60
0	1455	68984.900060473827	59
0	1459	69054.271346589843	60
0	1461	69146.640728062091	59
0	1465	69338.099875130553	60
0	1476	69752.182742944804	59
0	1480	69875.138507168247	60
0	1482	69896.210376829907	61
0	1484	69937.662329837621	62
0	1486	69961.184842111359	63
0	1493	70306.641574659646	64
0	1499	70688.362878879605	63
0	1503	71086.886043800858	62
0	1512	71240.484221858977	61
0	1516	71405.13094260439	60
0	1520	71529.916559380466	61
0	1522	71542.514568699597	60
0	1530	71865.101939170507	59
0	1534	72290.667046813368	58
0	1538	72318.598906348503	59
0	1540	72640.927667772146	60
0	1547	72877.59985556699	61
0	1549	72963.882816863548	62
0	1551	73109.027814819363	61
0	1559	73632.967015696632	62
0	1561	73714.695255106389	61
0	1570	73826.817672997116	62
0	1572	74122.329366424379	63
0	1574	74611.518883249608	62
0	1587	75006.409550888538	61
0	1591	75009.501191575005	62
0	1597	75573.590163826325	63
0	1599	75590.366825769323	64
0	1606	75693.735700304458	65
0	1608	75993.992471712961	66
0	1610	76126.496248167823	67
0	1612	76132.361015702556	68
0	1614	76176.932898941129	69
0	1620	76219.392909883407	68
0	1624	76441.093857354866	69
0	1626	76555.009047558605	68
0	1630	76664.840724732226	69
0	1632	77101.58787751764	68
0	1636	77170.398974223879	67
0	1640	77183.895718064072	68
0	1642	77184.462500615109	69
0	1649	77676.566955513206	68
0	1653	77718.605022359804	69
0	1664	78231.676490923464	68
0	1672	78487.562845255762	69
0	1674	78507.747084835455	70
0	1676	78528.357145238309	71
0	1678	78675.391409314123	70
0	1691	79155.674625609914	71
0	1693	79215.197077794817	70
0	1697	79357.383326983154	69
0	1701	79732.249726602304	70
0	1703	79954.606904844325	71
0	1705	80063.756242152281	72
0	1707	80087.144884762557	73
0	1714	80167.190677850392	72
0	1718	80320.971594920457	71
0	1726	80660.790497382294	72
0	1728	80883.300308714485	73
0	1730	80947.091599364065	74
0	1737	81244.075360295878	75
0	1739	81413.539559729233	76
0	1741	81438.925219467726	75
0	1745	81513.798626407267	76
0	1751	81630.406157072795	77
0	1753	81791.02645501722	78
0	1755	81807.979516929091	77
0	1759	81955.617238088396	76
0	1763	82271.077187630828	77
0	1765	82282.319758430089	78
0	1767	82302.300697554682	79
0	1769	82477.750577877211	80
0	1771	82564.163771896508	79
0	1780	82868.739685213269	78
0	1784	83295.502069434967	77
0	1788	83436.521358593795	78
0	1799	84469.913531264366	77
0	1803	84595.039649805605	78
0	1805	84786.284301756766	77
0	1809	84788.625562566205	78
0	1811	84875.60890216737	79
0	1813	85002.123471408168	80
0	1824	85686.310505738558	79
0	1828	85919.977145049379	80
0	1839	86217.500774911576	81
0	1841	86260.767132109847	80
0	1854	86878.062563784996	81
0	1856	86966.631422108855	80
0	1860	87242.323611361982	79
0	1868	87346.005559614487	80
0	1870	87711.080082241351	81
0	1877	87880.944783002716	82
0	1879	87972.317416717726	83
0	1881	87975.41634959474	84
0	1883	88081.724307491329	83
0	1887	88202.420921494755	84
0	1893	88526.154324209394	83
0	1897	88699.650925550116	84
0	1899	88712.37521345976	85
0	1901	88721.179220080014	86
0	1908	88867.964804244887	87
0	1910	88917.667071870109	88
0	1912	89030.285233130755	87
0	1916	89036.718066980367	88
0	1918	89440.040045657272	89
0	1925	89598.631129041704	90
0	1931	89731.960335290876	89
0	1935	89906.239453608809	90
0	1937	89939.173529541196	89
0	1941	90078.769973998536	90
0	1943	90086.556745942221	91
0	1945	90128.50819908703	92
0	1947	90150.723684596338	93
0	1958	90757.725138506737	92
0	1966	91159.640989295092	91
0	1970	91227.06976624364	92
0	1972	91424.026653675439	91
0	1976	91791.212070338765	92
0	1983	91972.94653159603	93
0	1985	91984.031480095234	92
0	1993	92510.711727061648	93
0	1995	92556.32226695709	94
0	1997	92604.721104815536	95
0	1999	92659.437978349298	96
0	2001	92728.21820459956	97
0	2008	93096.862243397238	96
0	2012	93420.71310838564	97
0	2014	93446.501677464364	98
0	2025	93642.326745009866	97
0	2029	93919.539881191101	96
0	2033	93945.643071962597	95
0	2041	94512.627875614723	96
0	2043	94646.306490955951	95
0	2047	94647.33934250075	96
0	2054	94873.210305030709	97
0	2056	94875.058815090534	98
0	2058	94920.942292617522	99
0	2060	95095.563023216264	100
0	2062	95203.992008067942	101
0	2064	95330.520421597202	102
0	2066	95437.368443711546	101
0	2074	95625.065357621021	102
0	2076	95837.873586362305	101
0	2080	95860.807334497437	102
0	2091	96468.709786451307	101
0	2095	96653.484860229434	102
0	2097	96809.540381162313	101
0	2101	96822.657996287647	100
0	2105	96884.599139538984	101
0	2107	96932.574647327181	102
0	2109	96985.988680477624	103
0	2116	97145.607106482688	102
0	2120	97417.179040780369	101
0	2124	97445.653256555517	102
0	2130	97508.082701909731	103
0	2132	97597.937748575045	104
0	2134	97739.531451864985	103
0	2143	98007.034774741236	102
0	2147	98157.646137180418	103
0	2153	98464.247214131279	104
0	2155	98850.08318710382	105
0	2157	99012.963665632609	104
0	2166	99380.830104081777	103
0	2170	99918.869563547972	102
0	2178	100366.947844496075	101
0	2182	100479.581602393366	102
0	2189	100943.746088511196	101
0	2193	101050.211811892394	102
0	2195	101110.42725868516	103
0	2197	101322.725873138488	104
0	2208	101850.537902658884	103
0	2216	102252.370935071754	104
0	2218	102330.478591230823	105
0	2220	102402.673631331031	104
0	2224	102584.70939220291	105
0	2226	102615.42033939704	104
0	2230	102711.765151565973	103
0	2239	103316.994203379922	104
0	2241	103560.663866429475	103
0	2245	103702.769982532976	104
0	2247	103753.729832565858	105
0	2253	104352.185779644255	104
0	2257	104607.464637627904	103
0	2266	105029.470749563423	102
0	2270	105157.816559642187	103
0	2276	105328.891171795821	104
0	2278	105337.799208967094	103
0	2282	105587.817772451935	104
0	2284	105750.937891295997	103
0	2288	105907.977714802677	104
0	2295	106257.822355531986	105
0	2297	106280.282396918242	104
0	2301	106989.27178271468	105
0	2303	106997.440387926155	106
0	2314	107233.616165696529	105
0	2318	107586.929593686559	106
0	2324	107762.310005300207	107
0	2326	107888.531052714293	106
0	2330	107916.442979470101	107
0	2332	107970.110536656228	106
0	2336	108061.264333786423	107
0	2338	108215.230980305926	108
0	2340	108386.946285363834	109
0	2347	108735.526487092111	110
0	2349	108841.452706117224	111
0	2351	108848.919614274482	112
0	2357	109257.372458809587	113
0	2359	109398.113156912928	112
0	2368	109543.239447987524	111
0	2372	109669.884259610632	112
0	2374	110112.912737077182	111
0	2378	110220.013234515477	112
0	2384	110455.829107007829	111
0	2393	111320.463813042348	110
0	2397	111434.292891297717	111
0	2399	111461.799224122313	110
0	2407	111593.981379179364	109
0	2416	112233.88785587818	108
0	2420	112262.738400960355	109
0	2426	112773.836026142366	110
0	2433	112907.212968534676	109
0	2437	112981.648712826207	110
0	2439	113083.643605729645	109
0	2447	113526.975264830895	110
0	2449	113640.252807163868	111
0	2456	113943.817475842549	112
0	2458	114425.560708819775	111
0	2462	114457.998607290989	110
0	2466	114634.421920635513	111
0	2472	114902.344313224066	112
0	2474	115044.618768605113	113
0	2476	115171.101439665401	114
0	2478	115425.166157094842	113
0	2487	115516.970123453884	112
0	2491	115518.546945347466	113
0	2493	115667.333666548749	114
0	2495	116009.261873347765	113
0	2503	116382.454868033767	114
0	2505	116569.215878388731	113
0	2509	116928.791922550236	114
0	2511	116944.817973396252	115
0	2513	117068.757598311038	116
0	2520	117456.259995153368	117
0	2526	117566.360727122134	116
0	2530	117592.338227670334	117
0	2532	117832.952205873072	118
0	2534	117841.808711608952	117
0	2538	117921.977135244262	118
0	2545	118227.208074807076	117
0	2549	118238.463350284469	118
0	2551	118613.690862638062	119
0	2557	118872.645138083844	118
0	2561	119211.487601762652	119
0	2563	119292.584049767701	118
0	2567	119377.33820172221	117
0	2576	119646.248787448301	118
0	2578	119800.236824749992	119
0	2584	119844.370806261067	120
0	2586	119919.598817419565	121
0	2588	120352.57110143528	122
0	2590	120814.641108011907	121
0	2594	120864.268507054893	120
0	2598	121083.560651412314	119
0	2607	121116.953143862749	120
0	2609	121150.358385389795	121
0	2611	121272.241010222463	122
0	2613	121327.82721648187	121
0	2617	121511.613453997305	122
0	2619	121526.884698971061	121
0	2623	121561.99579012838	122
0	2629	121895.925991936473	121
0	2633	121936.237492807107	122
0	2640	122284.893430192203	123
0	2642	122526.074339105634	122
0	2646	122744.155427647835	121
0	2654	122888.237793270085	122
0	2656	122890.447743563913	123
0	2663	123397.853245701742	124
0	2669	123526.590104360158	125
0	2671	123552.075662529914	124
0	2675	123820.459779037243	123
0	2684	124168.43179025534	124
0	2686	124362.426654530769	123
0	2690	124951.208711344517	124
0	2696	125091.507055639176	123
0	2700	125336.75411353082	122
0	2704	125384.987373991036	123
0	2711	125664.851327828018	122
0	2719	125950.121650454121	123
0	2721	126075.596910301806	124
0	2723	126172.294918609235	125
0	2725	126211.212456209665	124
0	2729	126722.05933104351	123
0	2733	126875.679221205201	124
0	2735	127041.470542905972	125
0	2742	127491.759108385896	126
0	2744	127543.806182241147	125
0	2752	127755.539409401623	126
0	2754	127908.192242480828	127
0	2756	127977.764725378601	126
0	2760	128100.175012072628	125
0	2769	128501.576572156492	126
0	2775	128814.949920272534	125
0	2784	129009.766786352866	126
0	2786	129045.476147449462	125
0	2790	129402.113009922044	126
0	2792	129678.172696923917	125
0	2796	129708.826534387588	126
0	2802	130258.014594941287	125
0	2811	130777.436198068387	126
0	2822	131356.537518708115	125
0	2830	131517.987680307574	126
0	2832	131651.073069787471	125
0	2836	131742.639463019852	126
0	2843	131842.449137703617	127
0	2845	131870.530347552396	128
0	2847	132236.545919125979	127
0	2851	132750.964313644143	128
0	2862	133067.161356715565	127
0	2866	133097.699359758644	126
0	2870	133136.703229866111	127
0	2872	133242.633714800197	128
0	2874	133247.006054263758	129
0	2876	133335.983210325759	130
0	2878	133341.065326548068	129
0	2886	134086.099339520638	128
0	2890	134154.330257163257	129
0	2892	134231.739405444249	130
0	2899	134413.864672502582	129
0	2903	134489.014526617909	130
0	2905	134592.898355378656	129
0	2909	134904.616685642009	128
0	2913	135066.758655695355	129
0	2915	135169.520641958421	128
0	2923	135342.357145509079	129
0	2925	135492.984146949776	130
0	2932	135715.360407998865	129
0	2936	135733.441473576981	130
0	2938	136095.466165804519	131
0	2940	136100.881216592042	130
0	2944	136118.292799537836	131
0	2946	136123.547237008163	132
0	2953	136259.260327535159	133
0	2959	136505.056199162154	132
0	2963	136512.618619788902	133
0	2965	136778.40055452854	132
0	2969	136805.794273101452	133
0	2980	137337.753965327234	134
0	2982	137413.918742678015	133
0	2986	137458.382438143795	132
0	2990	137504.833618870981	133
0	2996	137830.006991951613	132
0	3005	138469.341898430768	133
0	3011	138584.749230137913	132
0	3015	138647.129160305569	133
0	3017	138678.38458484233	132
0	3021	138951.398060052542	131
0	3030	139626.415147772816	132
0	3032	139627.479840655816	133
0	3034	139707.06798380009	134
0	3036	139791.675990070853	135
0	3038	139856.945412336735	134
0	3042	139885.036728521719	135
0	3048	140130.306939428753	134
0	3052	140219.814069642731	135
0	3054	140261.579420032711	136
0	3065	140533.50791859398	137
0	3067	140771.709843709957	138
0	3069	140790.976524254168	139
0	3071	140973.276669078973	140
0	3078	141036.461218408267	141
0	3080	141067.151023290007	140
0	3084	141512.607908418483	139
0	3088	141643.816896894685	140
0	3094	142016.916126527679	141
0	3096	142417.608102133579	140
0	3105	142470.789331450014	139
0	3109	142548.386128197888	140
0	3111	142691.448756295886	141
0	3113	142726.039054816938	142
0	3115	143062.586604381463	143
0	3122	143334.413655157325	144
0	3128	143589.520615285344	143
0	3136	143934.798251270204	142
0	3140	143937.364339990264	143
0	3142	144112.085896936355	144
0	3144	144212.532544380135	143
0	3148	144271.220040084342	144
0	3150	144474.730355983681	143
0	3159	144794.224789589064	144
0	3161	144907.869953653663	143
0	3169	145201.637659987516	142
0	3173	145661.603630582303	143
0	3175	145754.813885660011	144
0	3177	145826.643915279656	143
0	3186	146201.744743862012	144
0	3192	146282.007588010307	145
0	3194	146374.003654217429	144
0	3198	146386.092234653603	145
0	3200	146868.608615523019	146
0	3202	146909.750668919533	145
0	3206	147068.981711773283	144
0	3215	147494.333573271405	145
0	3217	147687.976940770112	146
0	3223	148078.566951061981	147
0	3225	148386.687919339984	146
0	3229	148484.468009045429	145
0	3238	149053.57050131157	144
0	3246	149502.468214130111	143
0	3250	149561.709050937444	142
0	3259	150169.668428908218	143
0	3261	150203.620401008137	142
0	3265	150218.894351637643	143
0	3267	150248.208530041025	144
0	3269	150640.186063595258	145
0	3271	150865.036388403624	144
0	3275	150902.882720844452	145
0	3277	151030.045739619144	144
0	3290	151611.671123983734	145
0	3292	151613.694270365526	146
0	3294	151700.280151365682	147
0	3300	152099.222849777051	146
0	3304	152142.584656086119	147
0	3311	152426.780531137138	146
0	3319	153485.363469514667	147
0	3326	153607.609114891001	146
0	3330	153754.074728480428	145
0	3334	154018.579636133164	144
0	3342	154296.268969282409	145
0	3344	154561.223559772679	144
0	3348	154780.538666798621	143
0	3357	155458.189988616852	144
0	3363	155567.467587759802	143
0	3367	155581.253196370012	144
0	3369	155731.340833327349	145
0	3371	156007.83885913983	144
0	3389	156805.74279482189	145
0	3391	157096.979848723856	146
0	3393	157146.018491155356	145
0	3397	157154.557936684561	146
0	3399	157196.318052282641	145
0	3412	157878.959263070375	144
0	3416	157885.703550409065	145
0	3418	157971.18056538775	146
0	3424	158228.283954995983	147
0	3426	158456.448394788513	146
0	3430	158569.327248400897	145
0	3439	159386.216198667114	146
0	3441	159441.521866015047	145
0	3445	159456.505192163259	146
0	3447	159695.796949519664	145
0	3455	160003.730449481755	144
0	3459	160052.032024731944	143
0	3463	160431.344721391526	144
0	3465	160487.416303923438	143
0	3474	160669.915315100378	144
0	3476	161062.253199136704	143
0	3484	161407.564389808923	142
0	3488	161583.348126133988	141
0	3492	161804.832173540145	140
0	3496	161924.35418393064	141
0	3503	162347.353694653958	140
0	3507	162649.127364966381	141
0	3513	162826.054059026847	140
0	3517	162915.066691562241	141
0	3524	163286.041255100518	140
0	3537	163703.531358071784	141
0	3539	163963.934876202693	142
0	3541	163972.225720288578	143
0	3552	164426.597508086806	144
0	3554	164463.298042027364	143
0	3562	164856.662250901058	144
0	3564	164858.619764401465	143
0	3568	165024.534612815212	144
0	3570	165224.48482367292	143
0	3574	165471.123628525148	142
0	3583	165638.468405567805	143
0	3585	166109.835623837034	144
0	3591	166337.192139281779	143
0	3595	166748.912279655049	144
0	3602	166828.257685137997	143
0	3606	167070.7997603257	142
0	3619	167569.860397262583	141
0	3627	167930.649392596334	140
0	3631	167975.315173517053	141
0	3633	168108.717300688932	140
0	3637	168156.042023650961	141
0	3644	168691.93041629529	142
0	3646	168971.104709907323	141
0	3654	169390.871863802754	142
0	3656	169447.798845712637	143
0	3658	169554.188641599268	142
0	3662	169591.638194641183	141
0	3666	169888.963633745992	142
0	3668	170250.021383969198	141
0	3677	170381.934452258899	142
0	3679	170781.722274972946	141
0	3687	171726.580655566306	140
0	3696	171840.941061807881	139
0	3704	172704.474046995948	138
0	3708	172912.850032242735	139
0	3715	173159.168189792783	138
0	3719	173261.809802408095	139
0	3721	173297.512890493582	138
0	3729	173667.286025491213	139
0	3731	173797.386841877253	138
0	3735	174232.978733434231	137
0	3744	174520.901809541593	136
0	3748	174584.777209321946	137
0	3750	174701.355072827822	138
0	3756	174763.433308054883	139
0	3758	174868.456858994685	140
0	3760	175245.858178308318	139
0	3764	175335.243234584802	140
0	3766	175449.401090322883	139
0	3775	175865.70508777246	138
0	3783	176339.982592968355	137
0	3787	176447.52372269921	138
0	3789	176784.342889740021	137
0	3793	176884.681610150348	136
0	3797	176935.612795242219	137
0	3804	176984.586781324362	138
0	3806	177280.550300059926	139
0	3808	177327.097250937295	140
0	3810	177582.089265601431	141
0	3812	177720.493911012633	142
0	3814	177724.970014786433	141
0	3818	177744.268876864464	140
0	3826	178300.615742109689	141
0	3828	178356.381865462374	140
0	3832	178485.180594235594	141
0	3839	178870.454090071928	140
0	3843	178904.429649274307	141
0	3849	179074.293645798118	140
0	3853	179205.781061977706	141
0	3855	179263.771391075972	142
0	3857	179266.636353975248	141
0	3861	179357.079936487155	142
0	3863	179359.26409632667	143
0	3870	179709.780404881341	144
0	3872	179751.480240171861	143
0	3885	180155.715322528917	144
0	3887	180174.638244985492	143
0	3891	180195.761589728561	144
0	3893	180276.278179269489	145
0	3895	180287.625197719588	146
0	3897	180380.49815296967	147
0	3903	180781.179783370533	148
0	3905	180794.650963834376	147
0	3909	181039.017605197345	148
0	3911	181089.496531507086	147
0	3920	181467.40683277983	148
0	3922	181750.419341913314	147
0	3926	181754.050962759268	146
0	3934	182268.167718408715	145
0	3938	182368.831170570756	146
0	3945	182665.96376587075	147
0	3947	183051.301624915452	146
0	3951	183163.875749787452	147
0	3953	183178.595157219739	148
0	3955	183180.693152939987	147
0	3959	183189.67273702328	148
0	3965	183378.930927320273	147
0	3969	183384.772554141739	148
0	3971	183451.186640815235	149
0	3973	183551.202383964239	150
0	3975	183654.586113143982	151
0	3977	183704.38214695276	150
0	3981	183760.280382815251	151
0	3983	184015.823610938044	150
0	3992	184130.031820024994	151
0	3994	184396.924424420331	152
0	3996	184666.156561320734	151
0	4005	184822.122833763399	152
0	4011	185080.484124112741	153
0	4013	185150.745155616553	152
0	4021	185552.897396219497	153
0	4023	185828.796847692941	154
0	4030	186273.02449805857	153
0	4034	186531.99064918855	154
0	4036	186542.615359488973	155
0	4042	186653.792302680613	156
0	4044	186749.506907193811	155
0	4053	186805.945758430374	154
0	4057	186809.168183357965	155
0	4059	186967.136475033527	156
0	4061	187237.279577880056	155
0	4070	187484.250948804831	156
0	4080	187864.217300071271	155
0	4084	187932.154904848052	154
0	4088	187961.501459217268	155
0	4090	188000.193794452501	156
0	4092	188014.029010361783	157
0	4094	188717.635976960522	158
0	4101	188959.103397747589	157
0	4105	189258.773753113003	156
0	4109	189306.078577583743	155
0	4117	189506.620705012238	156
0	4124	189926.158337795833	157
0	4130	190665.637141681166	156
0	4134	190829.625618324417	157
0	4141	190908.093759847892	156
0	4145	191278.661493108331	157
0	4147	191392.773503317387	156
0	4151	191417.840724625575	157
0	4153	191551.952731103667	158
0	4159	191648.330896972568	157
0	4168	191908.031401385652	158
0	4170	192002.403254976583	157
0	4174	192076.07594434313	158
0	4176	192300.175836740149	157
0	4180	192455.067985570879	156
0	4189	192586.045394485904	155
0	4197	192822.305506752886	156
0	4203	193039.348951524211	155
0	4207	193240.766808411532	156
0	4209	193288.769426372758	157
0	4211	193440.896523154968	158
0	4213	193771.637412996321	159
0	4215	193778.815932451637	158
0	4224	193978.583443893207	157
0	4228	194002.349901549758	158
0	4230	194277.526849657553	159
0	4236	194540.331172759586	160
0	4243	194570.977071618749	159
0	4247	194640.455877884181	158
0	4255	195037.371449829732	159
0	4262	195564.4990442899	158