version 2
run Iteration-23-20200521-09:52:11-58668
attr configname Iteration
attr datetime 20200521-09:52:11
attr experiment Iteration
attr inifile omnetpp.ini
attr iterationvars "$i=2, $j=11, $0=15-(2+11)"
attr iterationvarsf i=2,j=11,15-(2+11)-
attr measurement "$i=2, $j=11, $0=15-(2+11)"
attr network Network
attr processid 58668
attr repetition 0
attr replication #0
attr resultdir results
attr runnumber 23
attr seedset 23
itervar i 2
itervar j 11
param **.resourcePool.amount 2
param **.resourcePool1.amount 11
param **.resourcePool2.amount 15-(2+11)
param **.source.interArrivalTime exponential(6min)
param **.delay.delay uniform(4min,28min)
param **.delay1.delay uniform(10min,28min)
param **.delay2.delay uniform(4min,16min)
param **.allocate.resourceModuleName "\"Network.resourcePool\""
param **.allocate1.resourceModuleName "\"Network.resourcePool1\""
param **.allocate2.resourceModuleName "\"Network.resourcePool2\""
param **.deallocate.resourceModuleName "\"Network.resourcePool\""
param **.deallocate1.resourceModuleName "\"Network.resourcePool1\""
param **.deallocate2.resourceModuleName "\"Network.resourcePool2\""
param **.router.randomGateIndex "uniform(0, 1) > 0.2 ? 0 : 1"

vector 0 Network.allocate queueLength:vector ETV
attr interpolationmode sample-hold
attr title "queue length, vector"
vector 1 Network.allocate1 queueLength:vector ETV
attr interpolationmode sample-hold
attr title "queue length, vector"
vector 2 Network.allocate2 queueLength:vector ETV
attr interpolationmode sample-hold
attr title "queue length, vector"
vector 3 Network.sinkStat lifeTime:vector ETV
attr interpolationmode none
attr title "lifetime of arrived jobs, vector"
attr unit s
vector 4 Network.sink lifeTime:vector ETV
attr interpolationmode none
attr title "lifetime of arrived jobs, vector"
attr unit s
0	0	0	0
0	8	733.982021364011	1
0	10	1281.826830856739	2
0	12	1401.288215937774	3
0	14	1708.404538227836	4
0	16	1798.333426294558	5
0	18	1865.834148611788	4
0	23	2002.604980173083	3
0	28	2008.300417821609	4
0	30	2187.69144270363	5
0	32	2276.977239330161	6
0	34	2483.285439948114	5
0	39	2623.467053536149	6
0	49	2823.792713259145	7
0	55	3093.99395172662	6
0	68	3599.392015636245	7
0	74	3920.000383250857	8
0	76	3923.29374093798	7
0	89	4608.318411011164	6
0	94	5144.736440407606	5
0	99	5301.071602200276	6
0	109	5536.190283513725	7
0	111	5681.875343184833	6
0	116	5890.426324853722	7
0	118	5953.451452630135	6
0	131	6194.212941157195	5
0	140	6398.425514267122	6
0	150	6637.974030675861	5
0	155	6882.588610734706	4
0	168	7146.203232516041	5
0	178	7601.719496009543	6
0	180	7605.462644131109	7
0	182	7739.775224860673	6
0	187	7932.087680237142	7
0	193	8130.464550855133	6
0	198	8161.787401532347	7
0	220	8953.565595086579	6
0	225	9072.976282537305	7
0	227	9283.662611770007	6
0	248	10208.563597027128	5
0	253	10310.890274801325	6
0	255	10409.964053673396	7
0	261	10637.665575596067	6
0	266	10705.239667083984	5
0	275	10878.275490480038	4
0	284	11363.864824186927	3
0	297	11520.791107408237	4
0	310	11960.018323197841	5
0	312	12054.967809744055	6
0	314	12130.730506574708	7
0	316	12160.378483500068	8
0	323	12494.540868366631	7
0	336	12691.352348167725	8
0	338	12786.029164716842	9
0	340	12868.796246509916	8
0	353	13357.96862987126	9
0	359	14000.266030768427	8
0	368	14251.418134494433	9
0	370	14430.63821141786	8
0	379	14550.966040224002	9
0	381	14578.374501282844	8
0	398	15466.741915906343	7
0	411	15767.311387725075	8
0	417	16040.924587000078	7
0	426	16196.177018223549	8
0	428	16234.655231372424	9
0	434	16458.922068255517	8
0	439	16637.457860682076	7
0	444	16785.196172735421	8
0	450	16981.882719549791	9
0	460	17158.219290257713	10
0	465	17414.586912395927	9
0	470	17724.166013013488	8
0	475	17735.106092941416	9
0	490	18108.969011059241	10
0	492	18246.341546180221	9
0	497	18363.799807678877	10
0	499	18384.761849764651	9
0	512	18488.126715240179	10
0	514	18807.075608085757	9
0	519	18814.454935907292	10
0	525	19103.254449423322	11
0	527	19191.027341868644	10
0	540	19538.248600635593	9
0	545	19546.604017617675	8
0	550	19585.453704253539	9
0	552	19602.644450661131	10
0	554	19747.151188315373	11
0	556	19795.860771203908	10
0	565	19942.473236556884	11
0	575	20146.747020583927	12
0	580	20373.528191947718	13
0	582	20405.511402312582	12
0	592	20675.978475258611	13
0	594	20787.801562923497	14
0	596	20789.615094874266	15
0	598	20822.188417541358	14
0	619	21247.795132587227	13
0	635	21462.735357347527	14
0	637	21474.033546533351	13
0	650	21697.116351204487	12
0	655	21797.64386379255	13
0	657	21880.378223559923	14
0	672	22213.384239450825	15
0	674	22223.619192752272	16
0	684	22575.141624446874	15
0	693	23035.331667984817	16
0	703	23198.876447940739	15
0	708	23400.548890728419	14
0	713	23402.516507480025	15
0	719	23499.691914359601	14
0	724	23565.171528848427	15
0	726	23705.607276867991	14
0	731	23757.30904908773	15
0	737	23943.035957592102	14
0	746	24414.211586568783	15
0	752	24454.393466279634	16
0	761	24593.983647788437	15
0	779	25044.664241785677	14
0	787	25169.29699034608	13
0	809	25645.838025111622	12
0	826	26082.470390342974	13
0	836	26367.908038376268	14
0	842	26412.988846565159	13
0	847	26636.640267681247	12
0	856	27306.095642309552	11
0	861	27466.279886181029	10
0	866	27523.520764504374	11
0	868	27866.627957479757	12
0	878	28197.501082255175	13
0	883	28293.849632724586	14
0	885	28447.975223075515	13
0	890	28594.606135748418	14
0	900	28812.314048598083	13
0	910	28994.137344147767	14
0	912	29037.630389159492	15
0	914	29168.755648622783	14
0	923	29204.252977823284	15
0	929	29694.687006298369	14
0	934	29823.379095050069	13
0	947	30056.485499898579	14
0	957	30512.68276094032	15
0	959	30567.252655612271	16
0	965	30756.886416037313	17
0	971	31066.275581840342	16
0	980	31164.391206654283	15
0	989	31181.340166475729	16
0	991	31220.523294807838	17
0	993	31239.033990181264	18
0	999	31362.829720686369	19
0	1005	31942.240617882377	18
0	1018	32385.884249212021	19
0	1020	32447.571965876883	18
0	1029	32715.810483510169	17
0	1038	32756.323922775628	18
0	1040	32834.08078132884	19
0	1042	32921.24778077851	20
0	1044	33022.890888895411	21
0	1050	33369.114256230094	22
0	1052	33449.44592986266	23
0	1054	33633.407573654747	24
0	1056	33778.681491885251	23
0	1073	34235.433886202909	24
0	1075	34279.719944077107	23
0	1084	34557.059027715889	24
0	1090	34691.333816426369	23
0	1099	34787.639323830041	24
0	1101	34875.930724331133	25
0	1103	34934.855521125448	26
0	1105	34945.366110574644	27
0	1111	35186.993291253191	28
0	1113	35405.000405397183	27
0	1126	36139.540125320229	26
0	1139	36642.11619037593	27
0	1145	36997.936357755131	26
0	1154	37752.207284944627	25
0	1167	37948.213907975621	24
0	1176	38200.874133344657	23
0	1181	38329.638600885568	24
0	1187	38615.990561630494	23
0	1196	38926.681139985079	24
0	1198	39000.083161978389	25
0	1200	39135.043437658643	26
0	1206	39175.140709395084	25
0	1211	39227.803304773366	26
0	1233	40202.091360960073	25
0	1242	40366.150593480902	26
0	1244	40483.069123963389	25
0	1249	40501.669688042196	26
0	1255	40650.430307697422	25
0	1272	41466.849500173595	26
0	1278	41614.034337925288	25
0	1283	41618.429097847529	26
0	1285	41697.961028862662	25
0	1290	41903.292291350881	26
0	1300	42228.325059425003	25
0	1305	42292.010477907524	26
0	1311	42529.262254948291	25
0	1316	42670.988271233745	26
0	1318	42861.333475404776	27
0	1324	42963.551098670989	28
0	1338	43470.662467484833	29
0	1344	43596.112996090121	28
0	1349	43866.229718391073	29
0	1355	44026.419338698062	28
0	1364	44348.627875259461	29
0	1366	44419.726179700262	28
0	1375	44528.949868509675	29
0	1381	44539.961859960899	30
0	1383	44574.935278447839	29
0	1388	44944.540065641078	28
0	1397	45368.215421483556	29
0	1407	45585.463293168611	28
0	1412	45901.398508360506	29
0	1414	45937.380583549413	28
0	1422	45983.733155887491	27
0	1440	46612.962029019865	26
0	1448	46690.471063155598	25
0	1456	46857.395268569263	24
0	1461	47060.545345942898	25
0	1476	47392.335584943817	26
0	1481	47688.975972437361	27
0	1483	47821.826366197235	26
0	1501	48016.712315941723	25
0	1509	48194.261216495103	24
0	1514	48222.921749278167	25
0	1516	48646.141710730763	24
0	1531	48907.267400522503	25
0	1533	49007.901534638049	26
0	1546	49204.646062406273	25
0	1559	49648.180516932077	24
0	1564	49677.688019815966	25
0	1566	49774.129550246959	26
0	1581	49965.029146347849	27
0	1583	50198.574073860909	28
0	1585	50300.556908736499	27
0	1593	50429.013467889197	26
0	1598	50492.176342110786	27
0	1605	50661.145584771903	26
0	1610	50731.82292792483	27
0	1624	51133.117376148189	28
0	1638	52012.882026258774	27
0	1643	52060.552967379363	26
0	1660	52231.47865539901	27
0	1662	52332.757594405009	28
0	1668	52780.768158824074	29
0	1674	52853.923943268629	28
0	1683	53315.613652355426	29
0	1689	53430.100523541479	30
0	1691	53463.293193440802	29
0	1704	53925.312843213352	28
0	1709	54283.869662771496	27
0	1722	54602.553919548063	28
0	1728	54995.493795037825	29
0	1730	55073.805451590486	28
0	1743	55468.309197763476	27
0	1752	56036.411293089229	28
0	1762	56308.361169182814	29
0	1764	56481.665410224267	28
0	1777	56904.783828186366	27
0	1782	56984.462929186848	28
0	1784	57034.986233787081	29
0	1786	57099.259626820636	30
0	1788	57149.64670018982	31
0	1794	57349.136185216201	32
0	1796	57394.421397561702	31
0	1801	57418.155672524043	30
0	1810	57684.065970967732	31
0	1816	57708.116049628623	30
0	1821	57717.510000336299	31
0	1823	57868.32384258985	32
0	1825	57899.798369298629	33
0	1833	58176.738100613031	32
0	1843	58339.318375524052	31
0	1848	58439.565367492521	32
0	1859	58815.194918610481	33
0	1861	59142.189176863406	34
0	1867	59234.681358050474	33
0	1876	59319.233359482028	34
0	1878	59373.868271610858	35
0	1887	59583.734284831304	36
0	1894	59856.086864958081	35
0	1899	59928.610199812719	34
0	1904	59929.010066018341	35
0	1910	60322.758730477836	36
0	1912	60462.140731673607	35
0	1925	60705.929209927592	34
0	1934	61087.722296385741	35
0	1940	61181.075090656552	34
0	1945	61214.173584703275	33
0	1962	61791.335062498722	32
0	1970	61843.591473869904	33
0	1972	61873.902436282405	32
0	1982	62004.794212728955	33
0	1987	62082.72437281482	34
0	1989	62115.300776068548	35
0	1991	62203.293364547511	36
0	2014	62852.82106772301	35
0	2031	63151.070719251905	34
0	2036	63532.834368433723	33
0	2053	64123.352246943557	34
0	2055	64202.654885586271	33
0	2064	64418.312396945538	34
0	2066	64551.316935590345	35
0	2072	64582.756991787714	36
0	2074	64606.52099944887	35
0	2079	64796.595774714649	36
0	2081	64828.074779075336	37
0	2091	65415.605225144627	38
0	2096	65477.630747335528	37
0	2110	65730.70589215673	36
0	2115	65751.815773798969	37
0	2117	65994.056112179178	38
0	2119	66033.732619921242	37
0	2124	66165.547154702133	38
0	2134	66393.422225108681	39
0	2136	66520.995638101952	40
0	2142	66906.704354394448	41
0	2144	67012.355143625646	42
0	2154	67161.780256491075	41
0	2159	67341.859090661853	42
0	2161	67349.534207131125	43
0	2163	67653.452457378184	42
0	2172	67711.157603547443	43
0	2182	68493.903835203419	42
0	2187	68601.064519810056	41
0	2196	68903.460835788319	40
0	2201	68946.526104482039	41
0	2207	69170.606061509167	42
0	2209	69175.105757015716	43
0	2211	69206.533740226735	44
0	2213	69214.972997445674	45
0	2215	69273.533368336534	44
0	2220	69386.17412093588	45
0	2222	69387.215636495421	44
0	2227	69540.89588906852	43
0	2232	69571.247971617479	44
0	2234	69655.810496335274	45
0	2244	69816.367952573965	44
0	2256	69919.244846984331	45
0	2258	70106.276005367239	46
0	2260	70242.14707766334	47
0	2270	70473.631594038808	48
0	2275	70485.509299489236	47
0	2280	70534.817774770745	48
0	2293	70749.089045862234	47
0	2303	70974.984687856338	48
0	2310	71280.149475049148	47
0	2315	71299.431819163187	48
0	2322	71639.427310611973	47
0	2330	71834.148985112584	46
0	2340	71980.305823227324	47
0	2353	72202.054155182014	46
0	2358	72250.538008735633	47
0	2360	72266.355230177319	46
0	2370	72669.548584735963	47
0	2372	72687.1441872069	46
0	2377	72768.303940563739	47
0	2409	73695.901401724587	46
0	2419	74052.800540516651	45
0	2424	74093.653039931694	46
0	2426	74315.350639547641	47
0	2445	74971.092653016127	46
0	2450	75054.313936642919	47
0	2452	75056.925460834878	48
0	2454	75230.371402848433	47
0	2463	75460.585220016908	48
0	2465	75510.644984270489	49
0	2467	75585.298611385534	50
0	2469	75664.2668458843	49
0	2474	75737.479721691381	48
0	2483	75800.481722691839	49
0	2489	75893.163923300985	50
0	2503	76822.807921136297	49
0	2508	76868.773993572811	50
0	2510	76907.610354546379	49
0	2515	77107.223548696937	50
0	2517	77136.553279987414	51
0	2531	77602.531536195349	50
0	2536	77671.71651092157	51
0	2546	77773.262468138144	52
0	2552	77987.752622041773	51
0	2557	77993.125366384315	52
0	2559	78013.974663654841	51
0	2564	78157.123576576199	52
0	2574	78619.524645957085	53
0	2580	78801.506498112682	54
0	2582	78872.804887426099	55
0	2588	78965.376498728731	56
0	2590	78995.660264531649	55
0	2595	79043.517721028002	56
0	2605	79261.781882590527	57
0	2611	79498.949580687951	56
0	2616	79557.404748847228	57
0	2618	79569.025130277473	58
0	2624	79682.308012339466	59
0	2630	80181.119003301467	60
0	2636	80258.315813575784	61
0	2638	80456.007930894311	62
0	2644	80579.353961313642	61
0	2649	80630.297449615229	62
0	2651	80720.000131868816	63
0	2657	80894.483857902266	62
0	2662	81166.756554219793	61
0	2671	81693.670546547346	62
0	2677	81851.205188299097	61
0	2682	81961.898226644783	62
0	2696	82437.31710669763	61
0	2701	82495.874614084639	60
0	2710	82610.074518618525	61
0	2716	82913.609913113472	62
0	2722	83351.691116953768	61
0	2731	83436.41579122461	60
0	2736	83442.095753799281	61
0	2746	83504.555867299794	62
0	2748	83580.910086370217	63
0	2766	84469.265542554237	62
0	2775	84606.188743796121	61
0	2780	84963.575867912348	62
0	2786	85140.735069748475	63
0	2792	85505.826628553253	64
0	2794	85817.327427829184	63
0	2807	86143.009860712956	62
0	2816	86831.759535523631	61
0	2825	87130.83978843123	62
0	2827	87138.935750808488	61
0	2832	87148.618222262142	62
0	2834	87297.889314437495	63
0	2836	87302.870270641397	64
0	2838	87322.507353460001	65
0	2840	87394.325856769762	66
0	2850	87881.983640838336	65
0	2871	88479.735889424257	66
0	2873	88487.734037193038	65
0	2878	88565.2140234482	66
0	2884	88805.461343336429	67
0	2890	89213.553366459665	68
0	2892	89338.597468335103	67
0	2897	89447.336354841106	68
0	2903	89590.895514350306	67
0	2912	89764.500552790739	66
0	2921	90055.753624822866	65
0	2926	90128.271092476823	64
0	2931	90426.309472059642	65
0	2941	90732.586650486236	66
0	2951	91010.469193303346	67
0	2969	91375.321333261707	66
0	2978	91561.910871650945	65
0	2983	91762.169696877279	64
0	2988	92224.373764178262	65
0	2994	92388.280933330747	66
0	2996	92446.394474257132	67
0	2998	92620.78052107481	66
0	3007	92793.70251381577	67
0	3013	92889.530448013038	68
0	3018	93083.106866452764	67
0	3023	93083.447420346559	68
0	3025	93100.170566621839	69
0	3032	93445.127585905173	68
0	3041	93694.4379690773	67
0	3062	94298.948942350724	66
0	3075	94557.2604584307	67
0	3077	94572.106043409929	68
0	3079	94663.375585022251	69
0	3081	94682.281077133992	68
0	3086	94706.692446845311	69
0	3088	94866.120307697229	70
0	3102	95024.267744768333	69
0	3107	95462.535496058443	68
0	3124	96012.283046843985	67
0	3133	96590.621470224034	66
0	3154	96912.340179517618	67
0	3156	96957.54243136562	66
0	3161	96959.018949607888	65
0	3166	96960.4764380422	66
0	3176	97711.089424642304	65
0	3181	97712.334058742892	64
0	3190	97967.748385446647	63
0	3202	98385.493522400537	62
0	3223	98829.930699404251	61
0	3228	98854.582273189011	62
0	3238	99122.247430991303	61
0	3243	99215.042173171281	62
0	3245	99308.671812769975	63
0	3260	99778.258413376787	62
0	3265	99927.443405257867	63
0	3270	100094.764127597916	64
0	3272	100111.652310389947	63
0	3277	100176.218202848881	64
0	3288	100455.983549833063	65
0	3297	100677.383963506711	66
0	3304	100937.454874265861	65
0	3313	101035.299023764708	64
0	3326	101718.851478731152	65
0	3340	102366.058124864974	64
0	3349	102563.353090334606	63
0	3354	102612.434016763816	64
0	3356	102615.872474086545	65
0	3362	103162.053450431597	64
0	3371	103374.826434070745	63
0	3376	103397.440977486532	64
0	3386	103708.56023122735	63
0	3391	103842.103057543316	62
0	3396	103882.127106973348	63
0	3398	103922.137664217689	64
0	3400	103988.526778122387	65
0	3402	104050.740054564786	66
0	3404	104081.207523878586	65
0	3421	104802.760197015263	66
0	3443	105467.069221066811	65
0	3452	105554.457348782492	64
0	3457	106081.675062517204	63
0	3474	106592.30707169689	62
0	3487	106860.327171745613	63
0	3493	107546.424133423572	64
0	3499	107591.711087504158	65
0	3501	107744.516498709597	64
0	3506	107816.969999458564	63
0	3511	107836.487259537869	64
0	3513	107855.803945462618	65
0	3519	108234.594307254923	64
0	3528	108558.268285731353	63
0	3553	109381.070217790581	62
0	3570	109860.274711510345	63
0	3572	109908.988477002753	62
0	3577	110176.19677755793	63
0	3583	110336.252760427503	64
0	3597	111033.464434605016	63
0	3602	111042.925055364646	62
0	3611	111797.797340119757	61
0	3620	112005.588429565122	62
0	3626	112428.688001940734	63
0	3628	112432.563264604582	62
0	3645	113035.188058588578	61
0	3650	113077.396284186407	62
0	3660	113292.632550189771	61
0	3665	113295.326367361394	62
0	3667	113371.987400147325	63
0	3673	113762.163027014508	62
0	3678	113805.459612573065	61
0	3691	114362.794996003804	62
0	3696	114524.156480815186	61
0	3714	115004.778211845841	62
0	3716	115028.892788405098	61
0	3729	115383.908899437561	60
0	3746	116111.670520875528	59
0	3755	116132.941274723848	60
0	3757	116186.378283367787	61
0	3759	116234.02051923273	62
0	3769	116532.341062466182	61
0	3778	117072.557895759553	62
0	3780	117089.966492545147	63
0	3786	117360.772987206055	64
0	3792	117656.007514192632	65
0	3794	117690.661407338955	64
0	3799	117711.31606233485	63
0	3808	118028.415871413924	62
0	3821	119284.166904363706	61
0	3834	119423.522781521799	62
0	3836	119430.743547643103	61
0	3841	119716.615166530967	62
0	3847	119852.560206960812	61
0	3856	120139.241807099705	62
0	3858	120455.348364516238	63
0	3860	120513.800839718357	62
0	3869	120636.356581079342	61
0	3874	120662.521758944083	62
0	3876	120794.113556527488	63
0	3885	120919.501977379002	62
0	3890	120969.493772770257	63
0	3892	120985.90402019389	62
0	3897	121113.456561503849	63
0	3904	121274.325390208138	64
0	3918	121555.85383399671	65
0	3920	121591.065517099592	66
0	3926	121729.841728089424	67
0	3928	121791.449465749193	68
0	3936	121824.253200071432	67
0	3941	121878.643151684385	68
0	3943	122273.554429013208	67
0	3958	122605.272468330838	66
0	3963	122669.817681424095	67
0	3965	122957.706257823781	66
0	3970	123125.668066407122	65
0	3983	123277.411095734612	64
0	3988	123358.509355156374	65
0	3990	123373.812576009523	66
0	4000	123554.151353056111	65
0	4005	123811.624122049586	64
0	4029	124048.084389370366	65
0	4039	124507.727559070961	64
0	4047	124627.930837395343	65
0	4059	124890.080006348469	64
0	4064	124998.222683352296	65
0	4066	125091.856179358883	66
0	4076	125284.155741663846	67
0	4078	125352.611205396941	68
0	4080	125467.698153504328	69
0	4086	125530.616375359275	68
0	4091	125580.422466523003	69
0	4093	125670.582288253979	68
0	4102	125843.315983715036	67
0	4119	126194.68253196396	66
0	4128	126471.950750370642	67
0	4138	126804.757148417021	68
0	4140	126856.612746722804	69
0	4145	127089.719750147239	68
0	4159	127295.922666430631	69
0	4165	127381.65906582264	68
0	4170	127384.912766425488	69
0	4172	127417.030378606614	70
0	4182	127777.499846698235	71
0	4184	127863.139369567505	72
0	4186	127977.491604734138	71
0	4191	128396.086525533126	72
0	4193	128475.219196244038	73
0	4195	128646.055337503089	74
0	4208	129047.047954166809	73
0	4222	129486.867285121158	72
0	4231	129797.833828779438	71
0	4236	130315.439330277607	72
0	4238	130328.554278884947	73
0	4244	130574.523713992125	74
0	4250	130814.184255959878	75
0	4252	130845.430981221178	74
0	4260	131116.164656963125	73
0	4274	131574.040542814616	74
0	4280	132183.066878656426	73
0	4285	132230.252713758424	72
0	4294	132644.673268731609	71
0	4299	132668.931494916359	70
0	4311	132990.340051471838	71
0	4313	133023.810865815654	70
0	4326	133379.388492519537	69
0	4336	133496.877065530165	70
0	4346	133700.232971620095	71
0	4351	133929.831732886413	70
0	4367	134536.884307611659	69
0	4398	135302.085182780901	68
0	4403	135362.272759316539	69
0	4405	135441.877248323963	70
0	4407	135534.490841867093	71
0	4409	135680.645591106191	70
0	4418	135807.055307540287	71
0	4424	135895.838114913248	72
0	4426	136181.015706371441	71
0	4431	136274.479316251854	70
0	4436	136434.069868502715	71
0	4438	136478.909606336801	72
0	4440	136503.305162798538	71
0	4469	137493.581578124095	72
0	4471	137586.413053024485	71
0	4476	137592.464405612115	72
0	4478	137603.41717706061	73
0	4488	137949.37056973813	72
0	4493	137978.411533545628	71
0	4502	138473.584015231127	72
0	4508	138532.73452572761	71
0	4517	138756.536518311073	72
0	4519	138982.056194955985	71
0	4528	139169.161245200708	70
0	4536	139303.128156478087	69
0	4562	139936.713694662746	70
0	4568	139985.312714669361	71
0	4574	140274.029445212259	70
0	4579	140430.128598811607	69
0	4584	140506.237459112791	70
0	4598	140851.669099118485	69
0	4603	141086.761350557089	70
0	4609	141440.311591420146	71
0	4611	141547.227092238645	70
0	4620	141730.322960178009	71
0	4630	141998.608725529089	70
0	4635	142092.574687271702	71
0	4641	142224.918381539297	72
0	4643	142263.134917234893	73
0	4645	142334.074198130443	72
0	4650	142404.132457613367	73
0	4656	142629.131823118701	72
0	4661	142637.097047599663	73
0	4675	142930.479869584124	72
0	4680	143087.335297402993	73
0	4682	143439.334165868189	74
0	4684	143498.911449334182	75
0	4690	143609.511790531702	76
0	4692	143631.406625103691	77
0	4694	143718.79427308437	78
0	4700	143894.572474781349	77
0	4709	143992.970213643707	78
0	4711	144052.236578530515	79
0	4720	144342.39332739013	80
0	4727	144382.214824932199	79
0	4732	144451.673629326228	80
0	4734	144568.882435134086	81
0	4736	144712.307046735745	82
0	4738	144820.871224265471	81
0	4743	144904.931374343615	80
0	4748	144936.845501394282	81
0	4766	145617.200164338466	82
0	4776	145911.531907629147	81
0	4785	145936.447647737842	80
0	4794	146230.41132305054	79
0	4815	146983.63502753146	78
0	4820	147234.431356194001	77
0	4833	147487.540077290288	78
0	4839	147552.197699665769	79
0	4845	147698.720705947189	80
0	4847	148030.044269719897	81
0	4849	148045.266785669997	80
0	4854	148171.991192530643	81
0	4856	148233.899003381413	80
0	4865	148488.607972376156	81
0	4875	148762.254486981917	82
0	4877	148793.738658897296	83
0	4879	148869.485237572267	82
0	4884	149063.078214500781	83
0	4894	149381.283430277311	84
0	4896	149386.760355869812	83
0	4901	149500.341522965505	82
0	4913	149841.113010349256	81
0	4927	150287.816579090578	82
0	4933	150671.881286538902	83
0	4939	150783.670830430967	82
0	4944	150888.583884660079	81
0	4965	151541.941901710026	82
0	4967	151608.21016934879	81
0	4972	151755.620556688629	82
0	4974	151975.302092146053	81
0	4979	152122.170524559348	82
0	4993	152335.126199091358	81
0	4998	152507.042787607684	80
0	5007	152853.869992885509	81
0	5017	153127.170968404075	82
0	5035	153752.19569135694	81
0	5040	153957.013001974597	80
0	5049	154350.734475853426	79
0	5070	155124.572187300697	78
0	5075	155152.998327751787	79
0	5077	155266.079663712394	80
0	5091	155561.525857786221	79
0	5108	156592.452345762327	78
0	5113	156611.949996503574	77
0	5118	156756.910440661624	78
0	5128	156907.58105935022	79
0	5138	157417.613001217336	80
0	5140	157426.726224236113	81
0	5142	157670.874150630012	80
0	5151	158008.035252403393	79
0	5160	158269.980608525259	78
0	5165	158302.096204121665	79
0	5167	158360.672531407363	80
0	5173	158477.017871846372	81
0	5175	158593.153728146031	80
0	5180	158594.284796866161	79
0	5185	158610.052124314284	80
0	5187	158647.036206143399	81
0	5189	158685.465309555202	82
0	5191	158707.176570153779	83
0	5193	158786.965343636525	84
0	5195	158834.357957645019	85
0	5197	158908.320507074279	84
0	5217	159464.785432716081	85
0	5222	159532.088631849661	84
0	5227	159585.900154980391	85
0	5242	159988.122285727337	84
0	5252	160231.589374925982	85
0	5254	160247.771483177823	84
0	5267	160386.911176736537	85
0	5269	160401.773948154634	86
0	5271	160505.103833043227	87
0	5273	160605.081351541398	88
0	5275	160773.761278290125	89
0	5277	160920.834476586357	88
0	5282	160938.631035588442	89
0	5292	161066.367729138559	90
0	5294	161624.101390542966	89
0	5311	162008.892911944464	88
0	5320	162361.287209170443	87
0	5333	162775.580622426649	88
0	5339	163057.814250409769	89
0	5345	163164.391471486299	90
0	5351	163288.71078022061	89
0	5356	163295.463997509256	88
0	5361	163315.641575542324	89
0	5367	163647.94277454931	90
0	5369	163661.553450676185	89
0	5374	163809.136403661147	88
0	5383	164054.591785283052	89
0	5385	164296.272596876994	88
0	5390	164304.411497246849	89
0	5392	164366.049781204616	90
0	5394	164381.237837888198	91
0	5400	164540.147716405374	90
0	5416	164751.629231393623	91
0	5434	165212.516492662034	92
0	5441	165253.394152527068	93
0	5443	165451.753463799269	94
0	5445	165575.757806527001	93
0	5450	165641.911627376247	94
0	5456	165865.651477093381	93
0	5461	165916.363152835444	92
0	5474	166287.338224398346	93
0	5480	166297.984076157285	94
0	5482	166609.13422810033	95
0	5488	166667.948922181034	96
0	5490	166725.702688305564	97
0	5492	166948.657072459771	98
0	5506	167269.202050018982	97
0	5511	167284.400683978482	98
0	5513	167388.178280743343	97
0	5526	167910.732445197684	96
0	5531	168029.467670034544	95
0	5540	168722.259608220236	94
0	5555	168864.390258987683	95
0	5557	168951.086763799943	96
0	5559	169038.312909576969	95
0	5569	169218.822172174734	94
0	5579	169473.410923595113	93
0	5584	169545.124370096581	94
0	5586	169731.402627613323	93
0	5595	169844.947492844551	94
0	5597	169877.070284596253	95
0	5599	169993.173756910399	96
0	5605	170081.17165783565	97
0	5611	170120.356014476036	98
0	5620	170359.95616386384	99
0	5622	170385.385950272651	100
0	5632	170625.03416035561	99
0	5650	171326.675621878283	98
0	5659	171547.334863720944	99
0	5669	172118.795994969589	98
0	5678	172641.333715293484	97
0	5687	173216.752171183509	96
0	5692	173397.170045913297	97
0	5694	173410.323245788779	98
0	5700	173657.879063386398	97
0	5709	173789.410121070725	96
0	5714	173839.240428064602	97
0	5720	173948.977514213787	98
0	5722	174034.846167922315	99
0	5736	174564.053032218419	100
0	5738	174617.890638689998	101
0	5740	174915.980607133287	100
0	5749	175189.790815303606	99
0	5754	175189.969605085192	100
0	5780	175914.429297710341	99
0	5785	176012.830493498522	98
0	5794	176326.053170575682	99
0	5796	176441.633358328162	100
0	5802	176647.777144235416	101
0	5804	176761.307840002712	102
0	5806	176818.630365117836	103
0	5808	176872.116104329508	102
0	5821	177482.873293284255	101
0	5834	177744.530501573674	102
0	5836	177778.749122286719	101
0	5845	177953.706422645527	100
0	5854	178115.56656862065	101
0	5856	178510.24043884365	100
0	5865	178644.146128233451	99
0	5877	178771.376605872051	100
0	5879	178889.083470948606	101
0	5886	179145.928481430258	102
0	5891	179402.489518525583	101
0	5909	180069.169284526188	100
0	5922	180332.662915411358	101
0	5924	180368.440114895386	100
0	5933	181052.071760440509	101
0	5935	181222.77526249357	100
0	5940	181299.995537137169	101
0	5946	181614.340176863172	102
0	5952	181941.197066197676	101
0	5957	181990.749818349668	102
0	5963	182140.056668680091	101
0	5968	182471.976762043816	100
0	5976	182605.222410400568	101
0	5987	182735.043957989593	100
0	5992	182752.508842704362	101
0	5994	183202.58146435259	100
0	5999	183324.222068383485	101
0	6001	183450.199728805502	100
0	6014	183586.355578003768	101
0	6020	183712.679733076562	102
0	6022	183933.508842776102	101
0	6044	184179.400134432991	100
0	6049	184381.215733664614	99
0	6054	184415.625166623575	100
0	6061	184623.565674502108	101
0	6068	184834.515556012722	102
0	6070	184841.491686604029	103
0	6081	185143.935590291123	104
0	6087	185354.387873376292	103
0	6092	185435.934144163434	104
0	6097	185597.167128066105	103
0	6107	185741.376864180626	104
0	6109	185858.971519779344	103
0	6118	185925.342754610642	104
0	6132	186284.32912530868	105
0	6138	186733.043063318462	106
0	6144	187030.160041197354	107
0	6146	187055.190876165909	106
0	6151	187055.516380015135	107
0	6161	187407.453265827402	108
0	6163	187434.11712041348	109
0	6165	187505.746361028333	108
0	6174	187644.283359223671	109
0	6180	187732.484338572972	110
0	6182	187835.630306327639	111
0	6184	187990.46498934022	112
0	6186	188004.009207094879	113
0	6188	188078.15166278816	114
0	6190	188345.495824331922	113
0	6199	188635.275224570115	112
0	6204	188680.850160943849	111
0	6209	188878.374869828767	112
0	6219	189198.369451197823	113
0	6225	189411.701016974759	114
0	6231	189515.606473193825	115
0	6237	189691.62464718562	116
0	6243	189745.220350289204	117
0	6249	190102.314119415863	116
0	6254	190195.042456548591	115
0	6263	190740.550802650435	114
0	6268	190779.331104947101	115
0	6278	191105.226200378635	116
0	6284	191197.745110329171	115
0	6289	191367.406747714324	116
0	6291	191383.852186581234	117
0	6309	192179.105996119363	116
0	6318	192323.980227235635	115
0	6327	192714.675017560405	114
0	6332	192898.202722381731	113
0	6337	193106.933836707428	114
0	6358	193901.621899802168	113
0	6368	194194.361509087068	112
0	6377	194453.446778219124	111
0	6382	194858.722281679661	112
0	6392	195010.216790066125	113
0	6394	195051.394471863789	112
0	6403	195273.443282928249	111
0	6416	195438.708370199006	112
0	6418	195744.309253392866	113
0	6440	196472.088064365905	114
0	6446	196571.786951276047	113
0	6451	196867.214504677734	112
0	6456	197067.320893819017	111
0	6461	197180.630866337499	110
0	6470	197688.594777100388	111
0	6472	197756.24861036274	112
0	6478	197881.625127052982	113
0	6480	197977.557723572963	114
0	6490	198103.226262229229	115
0	6492	198227.616983664003	116
0	6494	198371.589541139586	115
0	6499	198442.70420273014	114
0	6504	198701.775124639757	115
0	6518	199178.470023649318	114
0	6523	199394.488599476651	115
0	6525	199473.019829180023	114
0	6542	199685.193175013133	115
0	6544	199816.292718583581	116
0	6546	199831.525386079662	117
0	6559	200375.790524493834	116
0	6564	200415.482089637067	117