version 2
run Iteration-62-20200521-09:54:33-70472
attr configname Iteration
attr datetime 20200521-09:54:33
attr experiment Iteration
attr inifile omnetpp.ini
attr iterationvars "$i=6, $j=8, $0=15-(6+8)"
attr iterationvarsf i=6,j=8,15-(6+8)-
attr measurement "$i=6, $j=8, $0=15-(6+8)"
attr network Network
attr processid 70472
attr repetition 0
attr replication #0
attr resultdir results
attr runnumber 62
attr seedset 62
itervar i 6
itervar j 8
param **.resourcePool.amount 6
param **.resourcePool1.amount 8
param **.resourcePool2.amount 15-(6+8)
param **.source.interArrivalTime exponential(6min)
param **.delay.delay uniform(4min,28min)
param **.delay1.delay uniform(10min,28min)
param **.delay2.delay uniform(4min,16min)
param **.allocate.resourceModuleName "\"Network.resourcePool\""
param **.allocate1.resourceModuleName "\"Network.resourcePool1\""
param **.allocate2.resourceModuleName "\"Network.resourcePool2\""
param **.deallocate.resourceModuleName "\"Network.resourcePool\""
param **.deallocate1.resourceModuleName "\"Network.resourcePool1\""
param **.deallocate2.resourceModuleName "\"Network.resourcePool2\""
param **.router.randomGateIndex "uniform(0, 1) > 0.2 ? 0 : 1"

vector 0 Network.allocate queueLength:vector ETV
attr interpolationmode sample-hold
attr title "queue length, vector"
vector 1 Network.allocate1 queueLength:vector ETV
attr interpolationmode sample-hold
attr title "queue length, vector"
vector 2 Network.allocate2 queueLength:vector ETV
attr interpolationmode sample-hold
attr title "queue length, vector"
vector 3 Network.sinkStat lifeTime:vector ETV
attr interpolationmode none
attr title "lifetime of arrived jobs, vector"
attr unit s
vector 4 Network.sink lifeTime:vector ETV
attr interpolationmode none
attr title "lifetime of arrived jobs, vector"
attr unit s
0	0	0	0
0	1312	35502.763985529917	1
0	1314	35523.010181217711	0
0	1544	41315.515700761969	1
0	1546	41337.893353879863	0
0	1551	41404.594409455577	1
0	1553	41442.482685589456	0
0	2061	54276.103116304644	1
0	2066	54374.354621674699	2
0	2068	54446.568999579007	1
0	2081	54670.747832738455	0
0	3235	85100.580351235348	1
0	3237	85151.467414110388	0
0	3242	85187.231409836453	1
0	3247	85356.463433830838	0
0	3402	89619.323892786676	1
0	3404	89712.421991507945	0
0	3420	90128.764843804602	1
0	3422	90298.008228470802	2
0	3424	90320.851087462212	1
0	3432	90404.677885854942	0
0	3437	90417.087133746413	1
0	3439	90498.682460114984	0
0	3511	91538.501532155634	1
0	3521	92025.922052424025	0
0	3526	92026.008680895393	1
0	3531	92047.583140703244	0
0	5780	157385.116189388762	1
0	5790	157809.59314464699	0
0	6148	167908.918358123773	1
0	6150	167996.136197342842	0
0	6175	168339.938402558586	1
0	6177	168540.491049683666	0
0	6492	177335.394931879461	1
0	6494	177337.112958993129	2
0	6496	177426.921732691141	3
0	6501	177557.616185469252	4
0	6503	177624.934532991303	3
0	6519	177912.097016038482	2
0	6524	177993.804388208939	1
0	6529	178025.851506845463	0
0	7333	198985.509739253957	1
0	7335	198987.100661560273	0
0	7343	199050.421722672265	1
0	7350	199278.667129557955	2
0	7352	199291.149947353778	1
0	7357	199348.238258040821	0
0	8286	224845.195199405052	1
0	8288	224860.987209049145	2
0	8290	224879.057997125018	3
0	8292	224897.446602179302	2
0	8297	224911.830206373172	1
0	8307	225167.308526734	0
0	8312	225262.230558029969	1
0	8314	225307.90705642661	0
0	8442	228285.232961929555	1
0	8444	228371.490111482841	0
0	8744	236634.645554973824	1
0	8751	236823.243815891026	0
0	8766	237115.074848150707	1
0	8771	237178.898105287277	0
0	8776	237278.890784719898	1
0	8781	237380.101494277432	0
0	9150	246954.735930544259	1
0	9152	246967.406936611017	0
0	9162	247123.750773005192	1
0	9167	247263.072460932064	0
0	9172	247320.477564301762	1
0	9177	247578.328348747451	0
0	9875	266209.350138753731	1
0	9885	266466.706255271441	0
0	10179	272577.443968144829	1
0	10181	272631.98887986348	0
0	10338	276016.509368716934	1
0	10340	276036.049641710219	0
0	10362	276743.146310981269	1
0	10369	276769.884984134956	0
1	0	0	0
1	611	16925.107796063476	1
1	613	16974.878202191226	0
1	1171	32364.610712299457	1
1	1173	32424.132332728405	0
1	1181	32603.109979475318	1
1	1183	32617.66515099977	0
1	2107	54983.546758093543	1
1	2109	54989.737784309314	0
1	7248	196250.771379997164	1
1	7250	196431.943581650899	0
1	8482	228985.798368785178	1
1	8484	229174.810202397128	0
1	8816	238193.848077721475	1
1	8821	238326.96725065033	0
2	0	0	0
2	63	2381.224467123047	1
2	66	2514.003596332498	2
2	69	2658.397209913713	3
2	75	3100.343300507666	4
2	78	3125.790587635426	5
2	80	3156.227464072955	4
2	93	3388.346463508496	5
2	96	3483.542871329396	6
2	105	3916.02603136803	5
2	117	4239.620574202983	6
2	119	4317.645169992549	5
2	138	5070.843439785976	6
2	140	5197.820253775073	5
2	153	5545.304521240843	4
2	179	6179.026546303732	3
2	185	6179.977358378964	4
2	191	6217.0487509526	5
2	200	6492.840883911205	4
2	220	6628.492584189384	5
2	234	6934.342250320949	6
2	237	7011.845989979874	7
2	240	7132.956447082433	8
2	249	7436.802408911837	7
2	259	7486.160064944748	8
2	262	7506.523365764772	9
2	265	7510.463837221437	10
2	275	7777.510779478637	11
2	288	7993.816219612924	12
2	291	7998.760852712381	13
2	293	8049.49579744841	12
2	303	8332.000491269968	13
2	309	8454.472495551399	14
2	314	8569.151723415209	13
2	324	9244.072907378877	14
2	327	9271.663534629923	15
2	329	9366.433902022047	14
2	359	10058.169544891073	13
2	365	10302.957969084993	14
2	371	10558.252944082572	13
2	377	10575.337852979732	14
2	384	10698.431130626338	15
2	387	10730.49265590602	16
2	389	10939.047849283173	15
2	398	11283.217440103126	16
2	400	11346.261585236146	15
2	409	11499.748340687195	16
2	418	11823.047617491113	17
2	435	12299.933821999087	16
2	451	12811.707575206705	17
2	462	13018.925473774336	18
2	464	13067.161880445286	17
2	474	13259.243757345644	18
2	479	13593.507255644157	17
2	489	13705.563061689914	18
2	498	13960.112600745996	19
2	504	14204.392629107173	20
2	506	14403.835762266621	19
2	515	14660.556426888755	20
2	521	14717.023006870725	21
2	527	15136.541156929538	20
2	539	15472.101949874863	19
2	584	16079.101135896371	20
2	586	16086.322333582297	19
2	596	16480.589819976578	20
2	605	16835.183316704437	19
2	615	16974.878202191226	20
2	621	16991.827397206489	21
2	627	17162.699554681546	22
2	630	17188.921898102951	23
2	633	17238.320638243376	24
2	644	17485.260414080131	25
2	647	17526.298621789829	26
2	650	17635.964836253457	27
2	652	17746.2125736406	26
2	658	17905.705565502054	27
2	667	18028.872306544885	26
2	673	18049.623869605426	27
2	676	18204.658021528066	28
2	679	18743.60455276603	29
2	684	18945.31305813472	28
2	689	19253.760028623596	27
2	713	19621.657048978463	26
2	719	20126.375406221868	27
2	739	20520.509996817068	26
2	752	20858.914782370945	27
2	773	21083.148031898395	26
2	785	21498.948112011508	25
2	791	21623.465033061582	26
2	794	21950.797040250729	27
2	797	22033.976793350311	28
2	800	22037.995014755161	29
2	802	22152.777975269214	28
2	812	22187.820733678255	29
2	815	22242.269584125648	30
2	822	22459.804547447645	31
2	825	22733.779532533142	32
2	830	22879.182997413532	31
2	836	23042.075990869746	32
2	838	23316.580379747407	31
2	854	23743.975824707127	32
2	856	23900.59746000226	31
2	867	24254.848385092424	30
2	884	24903.399388261692	29
2	893	25094.64492583194	30
2	896	25119.160513189634	31
2	901	25199.711369921075	30
2	915	25699.729254342764	31
2	920	25892.209826328413	30
2	926	26079.022819090996	31
2	933	26310.029105506143	32
2	938	26447.432017505722	31
2	950	26781.67671016659	30
2	962	27096.767425565807	31
2	969	27405.087445045318	32
2	971	27466.180289231794	31
2	994	28163.216363449184	32
2	1008	28292.182336200582	31
2	1020	28809.38044085906	32
2	1023	28862.693412196422	33
2	1030	28901.328780815571	34
2	1036	29054.510079745757	33
2	1042	29450.878387992112	34
2	1047	29565.544390671509	33
2	1053	29712.806352619243	34
2	1056	29771.592183469733	35
2	1069	30102.861578383106	34
2	1075	30130.383469968137	35
2	1087	30534.245492512772	36
2	1092	30897.87783569898	35
2	1112	31322.787530406397	36
2	1139	31569.371097429154	37
2	1142	31705.054565797029	38
2	1144	31783.172128622043	37
2	1157	32186.540825415957	36
2	1175	32424.132332728405	37
2	1185	32617.66515099977	38
2	1188	32687.946792140056	39
2	1190	32783.229981542188	38
2	1199	32957.083302985598	39
2	1209	33189.077059593701	40
2	1216	33411.830119187341	41
2	1219	33447.628099010299	42
2	1227	33724.050975062508	41
2	1233	33806.565422028792	42
2	1239	33891.961924760763	43
2	1249	34011.716309377735	44
2	1259	34199.177199737847	45
2	1265	34406.113466483165	44
2	1277	34623.223796163437	45
2	1279	34748.891983975281	44
2	1288	35107.849522760476	45
2	1290	35112.040305317004	44
2	1296	35277.346864372135	45
2	1335	35796.798665126248	46
2	1341	35982.15780216511	45
2	1353	36624.32500430585	46
2	1356	36628.430580399975	47
2	1358	36797.902852532078	46
2	1364	36801.51890910748	47
2	1370	36936.489682126441	48
2	1373	36943.64759130962	49
2	1384	37063.830185481988	50
2	1387	37134.9320008897	51
2	1400	37475.813064959456	50
2	1410	37671.576564485172	51
2	1416	38078.20293699633	50
2	1422	38140.039489493962	51
2	1432	38510.795317908343	52
2	1435	38588.450826667553	53
2	1438	38775.771440637055	54
2	1440	38788.061681625057	53
2	1452	39159.563720337393	54
2	1459	39473.873095954652	55
2	1464	39748.041849874515	54
2	1486	40204.157289669473	53
2	1492	40350.320412374379	54
2	1509	40756.448848319746	55
2	1518	40854.87263032477	54
2	1534	41020.61434406525	55
2	1536	41131.373824079145	54
2	1563	41597.921213814266	55
2	1573	41890.49717728461	56
2	1579	41909.217860784937	55
2	1585	41917.312671315328	56
2	1588	42076.145249682703	57
2	1595	42234.622287356159	58
2	1598	42321.73662675772	59
2	1604	42571.561744113077	58
2	1626	42770.101539684352	59
2	1629	42807.732017089837	60
2	1635	42824.884811399916	61
2	1653	43275.12573198387	62
2	1656	43304.440316245783	63
2	1658	43328.213462487419	62
2	1664	43354.258132961177	63
2	1688	43860.659205757637	62
2	1694	43975.980264795537	63
2	1697	44093.718898109575	64
2	1706	44453.462009006199	65
2	1712	44496.381697657497	66
2	1717	44585.202637885321	65
2	1731	44798.845432104792	66
2	1734	44799.912118598468	67
2	1752	45370.847969322379	68
2	1754	45437.557972979356	67
2	1760	45500.243521526475	68
2	1763	45532.176764001829	69
2	1770	45945.831064362912	70
2	1772	46228.455739088912	69
2	1781	46472.622988664169	68
2	1787	46475.371757215679	69
2	1790	46580.080369238966	70
2	1796	46942.767015575104	71
2	1804	47245.063956540633	70
2	1810	47330.093229119749	71
2	1823	47966.111227788586	70
2	1832	48503.370970964987	69
2	1841	48691.180414316317	70
2	1844	48787.663331089944	71
2	1846	48803.480336472947	70
2	1861	49227.104300421286	69
2	1884	49833.000770792086	70
2	1886	50120.692208085764	69
2	1895	50292.412781920887	70
2	1898	50297.572095188758	71
2	1905	50451.094901486397	72
2	1907	50565.66811382081	71
2	1912	50950.534780949909	70
2	1918	50969.133763304325	71
2	1946	51572.252833035398	70
2	1955	51889.224254856947	71
2	1961	52007.041250393084	72
2	1966	52267.681729022968	71
2	1976	52368.032428946315	72
2	1983	52469.275171464692	73
2	1992	52957.856351223398	72
2	1998	52965.838628300313	73
2	2004	53240.509674829123	74
2	2020	53548.538156917238	75
2	2023	53584.717264529826	76
2	2032	53638.676611234058	75
2	2064	54374.052985408245	76
2	2073	54583.66701283734	75
2	2079	54588.167472584844	76
2	2101	54973.377729666044	75
2	2111	54989.737784309314	76
2	2114	55062.485090911543	77
2	2123	55479.163008024747	78
2	2126	55577.506237937303	79
2	2128	55649.783539169093	78
2	2134	55664.003620796173	79
2	2154	56101.415323105266	78
2	2160	56257.080094971355	79
2	2163	56300.190974448557	80
2	2170	56489.684780612419	81
2	2176	56596.618242772297	82
2	2179	56611.164748485308	83
2	2185	56829.528156512042	82
2	2194	56843.511945371177	83
2	2200	56986.39286348301	84
2	2203	57072.876870918479	85
2	2217	57273.882255286535	84
2	2236	57697.841170049341	85
2	2251	58089.989663709512	84
2	2265	58190.156974540552	85
2	2272	58422.091128810576	86
2	2275	58451.345851555388	87
2	2278	58497.119118894669	88
2	2301	58786.066128322376	89
2	2307	59047.477913771382	88
2	2320	59236.910905019843	89
2	2323	59263.08115627116	90
2	2326	59282.428530796701	91
2	2335	59396.589036558381	90
2	2345	59966.723528610702	91
2	2348	59992.321231867915	92
2	2351	60027.265301364927	93
2	2354	60118.71142966665	94
2	2364	60288.610565171203	93
2	2370	60554.089190929562	94
2	2376	60893.638939627072	93
2	2385	61092.204116547589	94
2	2388	61267.490637541206	95
2	2391	61423.436968516297	96
2	2393	61498.342500918171	95
2	2399	61568.984263975801	96
2	2408	62042.008834101817	95
2	2418	62308.563574899006	96
2	2420	62358.869152974895	95
2	2431	62892.59447506871	94
2	2439	63607.507371523044	93
2	2454	63847.195007191374	94
2	2460	64312.598600771836	93
2	2480	64830.006618492863	92
2	2500	65008.006203839177	93
2	2503	65198.347373750161	94
2	2505	65309.372343060187	93
2	2518	65575.72629888784	92
2	2524	65638.767927843277	93
2	2530	65872.963422952607	94
2	2533	65945.843695166203	95
2	2536	65950.110448429091	96
2	2542	66057.501614086887	95
2	2551	66322.256186690199	96
2	2560	66768.336097740194	95
2	2573	67092.938397262617	96
2	2579	67098.507807597008	97
2	2585	67155.419387792042	98
2	2595	67648.152098443916	97
2	2601	67765.279486171987	98
2	2613	68079.427319590559	97
2	2619	68250.332616261888	98
2	2622	68392.672622008313	99
2	2627	68400.944119778087	98
2	2648	69070.344462324447	99
2	2650	69139.552802008202	98
2	2656	69341.115866547379	99
2	2658	69445.877887338957	98
2	2671	69710.966564464472	99
2	2678	70103.323292407189	100
2	2680	70268.416777507028	99
2	2693	71011.748808637881	100
2	2695	71221.670381792447	99
2	2701	71331.492687056314	100
2	2712	71655.720934898219	99
2	2733	72234.576444072866	100
2	2735	72425.742159143648	99
2	2745	72605.882098674042	100
2	2748	72846.540759657361	101
2	2763	73275.699271813593	100
2	2775	73699.347713543698	101
2	2781	73932.582105908213	102
2	2791	74183.224083699844	101
2	2807	74566.965877040462	102
2	2817	74749.602379120846	103
2	2819	74758.613086969218	102
2	2840	75177.584196127382	103
2	2849	75519.463236436806	102
2	2855	75531.212209340609	103
2	2858	75666.875888364815	104
2	2860	75809.805791948549	103
2	2870	75980.061135929747	104
2	2892	76172.394463101932	105
2	2895	76208.467218143131	106
2	2902	76361.063384230928	107
2	2908	76574.855502725206	106
2	2924	76808.790073326097	107
2	2941	77341.869243115745	106
2	2947	77428.418877884499	107
2	2950	77491.519089240392	108
2	2957	77583.229175873	109
2	2966	77774.434885077737	108
2	2972	77785.45990338011	109
2	2975	77820.789735655787	110
2	2986	78149.5086563353	111
2	2992	78297.03139439834	112
2	2995	78311.265393677273	113
2	2997	78410.630828861706	112
2	3006	78647.100834863061	113
2	3012	78854.50278950166	112
2	3018	79048.325020077625	113
2	3028	79405.010310602974	114
2	3030	79663.859891214036	113
2	3039	79907.913400064339	114
2	3055	80383.996129525199	115
2	3057	80431.417979050987	114
2	3078	80999.9474827013	115
2	3084	81183.882917680406	114
2	3094	81625.334649458809	115
2	3096	81700.984233350121	114
2	3102	81716.215291345126	115
2	3108	81941.104491668089	116
2	3117	82111.633916541259	117
2	3119	82125.738649324142	116
2	3124	82671.847995475494	115
2	3133	82808.821646493792	116
2	3146	82958.895876810514	115
2	3165	83471.26485376861	114
2	3182	83882.501486336298	115
2	3185	83919.769707652062	116
2	3188	84035.606662930269	117
2	3197	84218.156044383161	116
2	3203	84430.705339640674	117
2	3213	84738.971149939769	118
2	3216	84826.427001469289	119
2	3227	85013.61850644704	118
2	3245	85236.162855760096	119
2	3261	85596.523468480307	120
2	3263	85769.070674062335	119
2	3280	86144.924608774946	120
2	3283	86179.024296152245	121
2	3293	86340.260375426964	122
2	3295	86375.967298795098	121
2	3305	86769.107181293379	122
2	3318	87038.036609247887	121
2	3324	87039.099116114388	122
2	3329	87529.268325578982	121
2	3338	87780.228648307572	122
2	3341	87786.703897179798	123
2	3347	87854.288233944047	124
2	3353	88249.390099958704	125
2	3356	88272.310330537002	126
2	3366	88487.579610974157	125
2	3385	89181.504727483356	124
2	3391	89283.15631957307	125
2	3410	89858.065612370016	126
2	3412	89984.11061975416	125
2	3418	90098.466144843479	126
2	3430	90328.39539784287	127
2	3444	90585.695755828733	126
2	3457	90841.196474407429	125
2	3473	91003.483315533082	126
2	3478	91155.801437546129	125
2	3495	91337.143973466633	126
2	3498	91348.002852033315	127
2	3504	91420.991272851349	128
2	3506	91459.471846737529	127
2	3513	91783.613586251254	126
2	3519	92009.352333350432	127
2	3529	92042.407692562844	128
2	3541	92130.666552045805	129
2	3544	92191.581880078344	130
2	3555	92428.662169283308	131
2	3571	92685.092384696568	130
2	3581	92730.691721389831	131
2	3590	92949.639038268101	132
2	3593	92980.717000822048	133
2	3595	93057.221521672423	132
2	3601	93140.258962396275	133
2	3604	93331.274080537586	134
2	3606	93660.465868387933	133
2	3620	93988.461996951696	134
2	3623	93990.47783597405	135
2	3629	94049.631095141798	136
2	3642	94474.332618073191	135
2	3651	94581.150643142612	136
2	3658	94720.23573344639	137
2	3671	95090.076583606885	138
2	3673	95172.297151081826	137
2	3679	95403.982429311643	138
2	3682	95596.382951549131	139
2	3684	95931.743129931952	138
2	3701	96221.936971709621	139
2	3703	96263.946254842545	138
2	3712	96519.777182017083	137
2	3718	96675.564022843973	138
2	3724	97311.643638305927	137
2	3730	97327.208666644971	138
2	3736	97742.076726016753	139
2	3744	98090.380138654823	138
2	3749	98455.436225247199	137
2	3755	98528.413355178569	138
2	3784	99300.711908873732	137
2	3793	99546.432048671509	136
2	3809	99930.692447882707	135
2	3815	99954.450120137629	136
2	3822	100159.230906337632	137
2	3824	100198.082968362237	136
2	3830	100326.07828596614	137
2	3836	100534.888275187216	138
2	3846	100881.647972262376	139
2	3853	101077.420897561725	140
2	3855	101157.921620917137	139
2	3864	101453.429483139546	140
2	3867	101765.405210712088	141
2	3870	101840.952448566537	142
2	3875	102045.934290934916	141
2	3894	102364.469568368609	140
2	3906	102689.69499911424	139
2	3912	102726.513127363717	140
2	3929	103302.029840678538	139
2	3935	103327.077103563016	140
2	3953	103951.482395317967	139
2	3959	104100.881350431169	140
2	3969	104120.095187356522	141
2	3976	104490.412814283407	142
2	3983	104558.158774326687	143
2	3989	104856.926271498765	142
2	4004	105145.54692810601	143
2	4007	105160.839986073022	144
2	4010	105194.989789645235	145
2	4027	105428.721242428388	144
2	4051	105832.275962057518	145
2	4054	105850.510018303041	146
2	4057	105926.106150995442	147
2	4060	106029.667469325854	148
2	4065	106209.49986356553	147
2	4078	106712.72547307566	148
2	4081	106790.41466102991	149
2	4084	106795.560366242693	150
2	4090	107029.317243315841	149
2	4096	107044.120131331389	150
2	4113	107402.648839145018	151
2	4116	107628.433014426746	152
2	4128	107982.507766403819	151
2	4137	108151.781914818416	152
2	4149	108516.248223029638	151
2	4155	108552.710887215029	152
2	4170	108731.968936354096	153
2	4180	109164.015022378976	152
2	4186	109339.562148881118	153
2	4189	109340.915658677939	154
2	4195	109495.576172918035	155
2	4197	109618.504162740524	154
2	4203	109673.313909761136	155
2	4206	110065.512389629534	156
2	4211	110474.895514634068	155
2	4217	110790.942375630275	156
2	4230	111049.437814590151	155
2	4238	111566.869768847341	154
2	4248	111976.311822066069	155
2	4251	112246.020714338279	156
2	4253	112338.487051793004	155
2	4262	112592.113053716903	156
2	4264	112593.630646478946	155
2	4276	113198.994795784916	154
2	4296	113695.46335280911	155
2	4298	113866.622919545139	154
2	4307	114000.780685973896	155
2	4312	114446.482025638784	154
2	4324	114590.921369467356	155
2	4341	115114.064120680655	154
2	4357	115976.954239711727	153
2	4367	116080.671547162979	154
2	4370	116458.458108108989	155
2	4373	116472.823870802934	156
2	4379	116506.346358790077	157
2	4381	116552.264312442954	156
2	4387	116570.634531137257	157
2	4397	117250.695297524895	156
2	4403	117447.893575143408	157
2	4405	117491.883631285842	156
2	4418	117658.485528021508	157
2	4420	117746.593440689709	156
2	4430	118370.428097909759	157
2	4432	118506.257250618752	156
2	4441	118600.165370872112	157
2	4447	118839.227900222737	158
2	4449	118951.406875990894	157
2	4478	119785.634252682891	156
2	4507	120329.142252218541	155
2	4516	120611.283865104494	156
2	4519	120631.915425279604	157
2	4522	120633.092166966243	158
2	4525	120688.695791037055	159
2	4531	120796.201825083117	160
2	4538	120967.91457859558	161
2	4540	120998.257372707691	160
2	4563	121714.564726159539	159
2	4583	122074.223094156508	160
2	4593	122456.510199785795	159
2	4599	122604.807088065471	160
2	4602	122620.265954350042	161
2	4609	122781.062631199786	162
2	4616	122908.047107447546	163
2	4621	123130.922341935899	162
2	4630	123257.633203841639	163
2	4633	123345.593646878101	164
2	4635	123478.622062702294	163
2	4641	123501.659946562747	164
2	4651	123851.325049454387	165
2	4664	124242.133717429291	166
2	4666	124276.912268095281	165
2	4689	125080.07106486712	166
2	4695	125107.663831940643	167
2	4701	125199.667450164076	166
2	4718	125745.480145130672	167
2	4720	125769.031929515865	166
2	4729	126010.642607815091	167
2	4738	126275.73646693733	166
2	4744	126342.498141801457	167
2	4747	126360.686751702192	168
2	4765	126867.108894264918	169
2	4767	126983.396960229245	168
2	4773	127048.00091431034	169
2	4776	127095.230289001348	170
2	4782	127483.038848706153	169
2	4794	127871.385987103323	170
2	4797	127926.465100943631	171
2	4803	128423.166549031255	170
2	4816	128514.641664280235	171
2	4826	129216.110392581298	172
2	4831	129373.360267311898	171
2	4840	129622.177936912146	170
2	4846	129628.0893833367	171
2	4856	129863.44546602707	172
2	4858	130162.249957968113	171
2	4870	130644.061395146516	170
2	4882	130963.219725713776	171
2	4884	130978.337745249835	170
2	4900	131328.211166820781	171
2	4902	131335.11708132234	170
2	4922	131907.243474715022	169
2	4932	132088.195098016861	170
2	4935	132108.323987485679	171
2	4938	132171.548242448572	172
2	4948	132252.671000000653	171
2	4959	132541.606504537729	170
2	4965	132793.144913193286	171
2	4970	132949.18545007017	170
2	4980	133052.89673182306	171
2	4983	133172.197060660393	172
2	4985	133196.501607832131	171
2	4994	133378.171974192153	172
2	5007	133849.240069345203	171
2	5013	133858.7482299078	172
2	5016	133935.988045430109	173
2	5025	134262.324412258104	174
2	5031	134358.385019500372	173
2	5047	134948.684245326875	174
2	5053	134987.961332796102	175
2	5055	135102.152473621634	174
2	5093	135773.599139500973	173
2	5099	135904.034787879242	174
2	5102	136119.741235981428	175
2	5108	136256.634468247314	176
2	5111	136513.512436436021	177
2	5113	136550.567347456333	176
2	5119	136670.823656126359	177
2	5126	136815.168084902748	178
2	5129	136842.463529547894	179
2	5138	137509.161932461527	178
2	5148	137787.772307593104	179
2	5167	138411.428554535475	178
2	5173	138516.299316825865	179
2	5178	138683.968680624482	178
2	5194	138965.12340878379	177
2	5203	139156.309613999293	178
2	5206	139191.506897349452	179
2	5209	139239.994789727661	180
2	5211	139312.434094746229	179
2	5227	139702.743261719253	180
2	5229	139959.697484199521	179
2	5242	140297.339669507761	180
2	5258	140831.683954682765	179
2	5264	140994.77993667497	180
2	5271	141383.781955083631	181
2	5274	141389.458584212732	182
2	5276	141534.967454013047	181
2	5282	141538.456859543037	182
2	5296	141877.544581735939	183
2	5302	142009.259483844605	182
2	5308	142332.265190507112	183
2	5313	142824.150837708828	182
2	5327	143331.388348536074	183
2	5329	143597.418573882994	182
2	5335	143614.858496850526	183
2	5341	144033.243698608221	184
2	5346	144344.629984714654	183
2	5352	144390.412187901261	184
2	5371	144877.894786440399	183
2	5380	145271.12303816956	182
2	5395	145542.848110692933	183
2	5401	145874.327078492013	182
2	5407	145923.692361069931	183
2	5417	145993.007745402679	184
2	5423	146221.350309432117	183
2	5433	146620.205899664797	184
2	5439	146988.239610244153	183
2	5449	147283.194163141697	184
2	5452	147301.173071527503	185
2	5454	147401.922939282475	184
2	5460	147561.057372294162	185
2	5466	147821.46352316032	186
2	5472	147858.720992778139	187
2	5474	148046.258555438934	186
2	5497	148915.912972085742	185
2	5502	149631.241050020424	184
2	5511	149827.65953509435	185
2	5517	149931.346846581493	186
2	5523	149954.869359911052	185
2	5536	150421.554775512395	186
2	5547	150870.230464872537	185
2	5553	151028.146623510742	186
2	5564	151374.302009102667	187
2	5570	151599.322526522545	186
2	5588	152147.717154652445	185
2	5598	152393.912998062133	186
2	5605	152597.678896151513	187
2	5608	152759.622008980035	188
2	5611	152798.986676925237	189
2	5613	152888.493575241981	188
2	5632	153201.811377740661	189
2	5648	153787.2146616621	188
2	5658	154002.264770880679	189
2	5668	154315.615501136152	188
2	5674	154472.325377199199	189
2	5684	154694.240841973701	190
2	5687	154842.759396241865	191
2	5690	154898.609135115003	192
2	5702	155206.386930917023	191
2	5711	155295.419548626602	192
2	5713	155468.987722632109	191
2	5719	155584.739561552439	192
2	5729	155854.933857303858	193
2	5732	155947.364205176695	194
2	5734	156099.944716424315	193
2	5751	156535.862528461615	194
2	5763	157019.124490909844	193
2	5775	157218.485966229736	194
2	5782	157416.502687439888	193
2	5788	157468.846484741007	194
2	5800	157866.671728682666	195
2	5814	158355.203638312041	194
2	5823	158824.944253147214	193
2	5832	158983.629264511007	194
2	5845	159105.510596323308	195
2	5847	159137.49285799694	194
2	5856	159324.464909415352	195
2	5859	159419.820830478477	196
2	5862	159540.031316276766	197
2	5865	159646.021831747809	198
2	5878	159771.915311098664	197
2	5900	160481.217267860292	196
2	5906	160495.215074148773	197
2	5916	160657.871051180321	198
2	5923	160870.766574812748	199
2	5925	160878.568860062032	198
2	5942	161200.370172664638	199
2	5948	161223.685549162956	200
2	5956	161459.699683424651	199
2	5962	161507.941052360248	200
2	5965	161642.120828836008	201
2	5975	161872.899208676636	200
2	5988	162256.160733434735	201
2	5994	162414.319575030923	200
2	6004	162503.200627540971	201
2	6006	162723.149751715928	200
2	6012	162755.889995315749	201
2	6015	162824.847247515393	202
2	6021	163093.169242127585	203
2	6024	163130.162108787786	204
2	6030	163447.142876696408	203
2	6050	163973.228372930466	204
2	6056	164310.676752880782	203
2	6062	164433.622586585671	204
2	6068	164770.797177792459	205
2	6070	164863.125254113794	204
2	6076	164949.39354400473	205
2	6083	165174.835750015308	206
2	6088	165457.07318005395	205
2	6093	165831.094326146514	204
2	6099	166107.234074660206	205
2	6105	166532.583443068535	204
2	6117	167015.01871154915	205
2	6119	167066.112776987822	204
2	6143	167686.800035529406	203
2	6159	168077.320444372119	202
2	6165	168179.107324624585	203
2	6170	168333.775744375409	202
2	6205	169019.878863770564	203
2	6212	169250.461379138126	204
2	6214	169269.725833584191	203
2	6223	169347.543397502056	204
2	6237	169945.753777604565	205
2	6240	169977.200132373094	206
2	6243	170043.838454544009	207
2	6245	170082.054311421336	206
2	6262	170409.638445313695	207
2	6265	170509.083848577466	208
2	6268	170517.85072179792	209
2	6278	171013.722617377163	208
2	6284	171087.589832484583	209
2	6287	171151.883224677543	210
2	6292	171327.871505238683	209
2	6298	171418.725596755051	210
2	6301	171594.924219520763	211
2	6303	171972.272920173229	210
2	6309	172054.226525487906	211
2	6311	172347.563195370705	210
2	6326	172673.077685602577	209
2	6338	173323.46679202524	208
2	6351	173622.683381034739	209
2	6360	173865.301690430017	208
2	6366	173916.327762709216	209
2	6372	174380.853614001664	210
2	6381	174655.629498355659	209
2	6396	175294.419465654167	208
2	6402	175296.790438892046	209
2	6409	175443.790111770996	210
2	6426	175849.426218102659	211
2	6431	176220.293319870355	210
2	6437	176249.875302217617	211
2	6446	176680.377229389372	210
2	6463	176861.619473126414	211
2	6476	177056.317968554984	212
2	6478	177059.967603304061	211
2	6484	177108.622694322707	212
2	6499	177540.814411180272	213
2	6509	177641.349577962536	214
2	6512	177684.539052621064	215
2	6514	177771.546803128543	214
2	6546	178567.530387970311	215
2	6551	178585.41327671391	214
2	6568	178920.827350361382	215
2	6582	179159.92626925434	216
2	6585	179160.729350460131	217
2	6587	179220.592405956807	216
2	6597	179454.363057696365	217
2	6610	179629.030895860606	218
2	6613	179733.810832801644	219
2	6629	180073.008020514248	220
2	6631	180127.389005303951	219
2	6637	180189.045470761535	220
2	6644	180370.559396452475	221
2	6650	180529.359123718562	220
2	6660	180840.526690375684	221
2	6666	181136.439752683612	220
2	6672	181175.261205952724	221
2	6679	181320.969810100025	222
2	6681	181398.04373109025	221
2	6694	181817.057758949998	222
2	6697	181962.4203925363	223
2	6700	182051.094416444609	224
2	6703	182250.134160188638	225
2	6705	182254.41051026118	224
2	6711	182377.175087465974	225
2	6714	182577.50310734835	226
2	6726	182948.16433117968	225
2	6744	183333.781896636458	224
2	6764	184050.228128500851	223
2	6773	184284.931557462591	224
2	6776	184299.018674459759	225
2	6779	184383.819228900758	226
2	6789	184901.692153469296	225
2	6795	185077.975714467684	226
2	6802	185269.534301865215	227
2	6804	185359.106853634687	226
2	6819	185858.068836799196	227
2	6831	186119.487935204627	226
2	6837	186219.621270050929	227
2	6840	186434.467362793621	228
2	6845	186545.72983657253	227
2	6882	187243.378355724416	228
2	6884	187260.200509012314	227
2	6890	187487.032810776655	228
2	6893	187653.393335537302	229
2	6910	188143.910376981469	228
2	6927	188232.793593143091	229
2	6930	188266.102857852071	230
2	6941	188490.5278152279	231
2	6944	188563.376051541396	232
2	6949	188840.452936042668	231
2	6955	188963.11533433096	232
2	6958	188995.275868920145	233
2	6964	189048.256474830026	234
2	6967	189133.501804418519	235
2	6974	189181.875764390785	236
2	6983	189202.111965187462	235
2	6988	189472.003044590922	234
2	6997	189901.821740747066	233
2	7003	190204.04709101784	234
2	7006	190449.551851893643	235
2	7012	190851.027800433906	234
2	7023	191269.096118931296	233
2	7029	191529.079772881346	234
2	7034	191882.272084814134	233
2	7051	192181.557641159298	234
2	7056	192427.910423327806	233
2	7074	192856.262799066129	232