version 2
run Iteration-73-20200521-09:55:43-72104
attr configname Iteration
attr datetime 20200521-09:55:43
attr experiment Iteration
attr inifile omnetpp.ini
attr iterationvars "$i=8, $j=4, $0=15-(8+4)"
attr iterationvarsf i=8,j=4,15-(8+4)-
attr measurement "$i=8, $j=4, $0=15-(8+4)"
attr network Network
attr processid 72104
attr repetition 0
attr replication #0
attr resultdir results
attr runnumber 73
attr seedset 73
itervar i 8
itervar j 4
param **.resourcePool.amount 8
param **.resourcePool1.amount 4
param **.resourcePool2.amount 15-(8+4)
param **.source.interArrivalTime exponential(6min)
param **.delay.delay uniform(4min,28min)
param **.delay1.delay uniform(10min,28min)
param **.delay2.delay uniform(4min,16min)
param **.allocate.resourceModuleName "\"Network.resourcePool\""
param **.allocate1.resourceModuleName "\"Network.resourcePool1\""
param **.allocate2.resourceModuleName "\"Network.resourcePool2\""
param **.deallocate.resourceModuleName "\"Network.resourcePool\""
param **.deallocate1.resourceModuleName "\"Network.resourcePool1\""
param **.deallocate2.resourceModuleName "\"Network.resourcePool2\""
param **.router.randomGateIndex "uniform(0, 1) > 0.2 ? 0 : 1"

vector 0 Network.allocate queueLength:vector ETV
attr interpolationmode sample-hold
attr title "queue length, vector"
vector 1 Network.allocate1 queueLength:vector ETV
attr interpolationmode sample-hold
attr title "queue length, vector"
vector 2 Network.allocate2 queueLength:vector ETV
attr interpolationmode sample-hold
attr title "queue length, vector"
vector 3 Network.sinkStat lifeTime:vector ETV
attr interpolationmode none
attr title "lifetime of arrived jobs, vector"
attr unit s
vector 4 Network.sink lifeTime:vector ETV
attr interpolationmode none
attr title "lifetime of arrived jobs, vector"
attr unit s
0	0	0	0
0	1333	30824.140201444467	1
0	1335	30886.326092883237	0
0	1345	30966.223486778697	1
0	1352	30995.37069023122	2
0	1354	31227.552303510406	1
0	1371	31561.783606988541	2
0	1373	31564.033517567326	1
0	1377	31570.994128003708	0
0	3520	87563.845048411021	1
0	3522	87564.027462788758	0
0	11177	270951.052768609278	1
0	11183	271084.427791971043	0
1	0	0	0
1	40	1895.040785946329	1
1	43	1957.45667594821	2
1	49	2399.862127503327	3
1	51	2502.410679955326	2
1	56	2792.616771608465	1
1	62	2881.966715381004	2
1	64	2913.215363901682	1
1	80	3218.786513985282	0
1	163	5030.749871003222	1
1	166	5095.992088557378	2
1	168	5125.045916347527	1
1	174	5265.951034618392	2
1	177	5387.130650763602	3
1	186	6120.277117241868	2
1	194	6151.042259025005	1
1	199	6380.667347265471	0
1	231	7098.566147771739	1
1	233	7111.82478914975	0
1	252	7337.155051217952	1
1	254	7402.040201273364	0
1	271	7552.939358640895	1
1	273	7840.438321550533	0
1	317	8501.100184082378	1
1	319	8523.769494482472	0
1	325	8535.732494571179	1
1	334	8771.277282453096	2
1	340	8791.012508942392	1
1	349	9116.597264569799	0
1	381	10104.554742635636	1
1	386	10164.869254111468	0
1	423	11084.335464072588	1
1	425	11123.680311572894	0
1	445	11500.681181699035	1
1	450	11538.158806294259	0
1	516	13043.789086637415	1
1	524	13206.942733053174	0
1	530	13293.293368850262	1
1	536	13391.557242173571	2
1	545	13792.669226251477	1
1	554	14018.761960509456	0
1	560	14142.576392078622	1
1	563	14163.449595429968	2
1	565	14308.250764765327	1
1	571	14438.703696835765	2
1	578	14498.639753837966	3
1	580	14605.456443263274	2
1	599	15135.884546915551	1
1	605	15250.695123605095	2
1	607	15295.211008548671	1
1	615	15420.038716794979	0
1	713	17052.638291232898	1
1	715	17061.176450319017	0
1	721	17317.049325484359	1
1	732	17371.289103567989	2
1	735	17403.292092447338	3
1	738	17427.311292331015	4
1	740	17440.117744255608	3
1	745	17480.001493079279	2
1	756	17615.205090267023	1
1	772	18263.3351193903	0
1	855	19477.68693919013	1
1	862	19747.124389751628	2
1	865	19869.161851690524	3
1	868	19946.194531838267	4
1	871	20064.438514265659	5
1	873	20171.22688800845	4
1	879	20285.460873515397	5
1	884	20358.194503757529	4
1	889	20361.523160934261	3
1	909	20839.026310689674	4
1	911	20911.477131243224	3
1	916	20983.072568375044	2
1	922	21093.352158142711	3
1	931	21262.871825907414	2
1	937	21422.929262724058	3
1	950	21732.843900445276	2
1	959	22002.679632436297	1
1	965	22025.074170427616	2
1	967	22125.22219354104	1
1	972	22331.496540536533	0
1	1135	27314.39643025554	1
1	1140	27388.67121714349	0
1	1170	27907.384726832757	1
1	1173	27983.591118829706	2
1	1180	28250.501206053625	3
1	1183	28317.34669969682	4
1	1188	28383.412554432991	3
1	1194	28543.901646206026	4
1	1197	28664.992328941439	5
1	1202	28843.186876789212	4
1	1207	28893.521659217729	3
1	1213	28998.059557248972	4
1	1218	29184.973955126981	3
1	1236	29385.063457480985	2
1	1240	29448.532371331483	1
1	1244	29512.276426732494	0
1	1249	29617.679610573869	1
1	1270	29814.167666289617	2
1	1284	30186.749208771775	3
1	1287	30275.264475300676	4
1	1305	30594.218448252771	3
1	1313	30666.799636908352	2
1	1319	30705.367297798375	3
1	1321	30732.102192707314	2
1	1329	30788.534367727618	1
1	1337	30886.326092883237	2
1	1340	30924.09249264697	3
1	1356	31227.552303510406	4
1	1358	31420.609024772923	3
1	1367	31498.33614167939	2
1	1375	31564.033517567326	3
1	1379	31570.994128003708	4
1	1382	31582.896021925695	5
1	1393	31677.958666660883	6
1	1396	31688.178092353728	7
1	1399	31771.416251791162	8
1	1409	32086.865182129089	7
1	1415	32115.872383132569	8
1	1422	32222.693951196261	9
1	1425	32250.436938943879	10
1	1427	32310.564931013167	9
1	1435	32455.148377223443	8
1	1444	32701.144528623624	7
1	1450	32766.060197974243	8
1	1457	33222.471773391475	9
1	1459	33230.478045164153	8
1	1464	33302.871519076209	7
1	1477	33452.251829671802	8
1	1479	33596.146884711413	7
1	1488	33659.58720285574	6
1	1505	34271.540574515741	5
1	1510	34360.27324704635	4
1	1522	34643.939309079677	3
1	1534	34927.634373941813	2
1	1544	34998.166606219986	3
1	1553	35095.208634755085	4
1	1563	35415.86177150394	3
1	1569	35537.13324576072	4
1	1571	35553.839403047581	3
1	1579	35794.239320252593	2
1	1589	35927.682306391701	3
1	1598	36005.413561101957	2
1	1604	36029.612811240898	3
1	1612	36222.169546314061	2
1	1621	36542.495025856514	3
1	1636	36754.658799552326	4
1	1638	36857.396462495794	3
1	1644	36903.789529014933	4
1	1653	37090.365025137211	5
1	1655	37119.638757706191	4
1	1660	37122.43781228225	3
1	1665	37429.497418526514	2
1	1679	37536.772014178147	3
1	1691	38143.442977714708	2
1	1696	38221.479802793394	1
1	1701	38362.274362395064	0
1	1711	38538.445402171915	1
1	1714	38613.719205598049	2
1	1723	38934.570499166271	1
1	1729	38976.707635878426	2
1	1731	38977.984020264773	1
1	1750	39381.36496273851	0
1	1791	40011.083773516994	1
1	1793	40054.487346495073	0
1	1799	40103.452535784452	1
1	1806	40328.29562478695	2
1	1808	40402.486158771932	1
1	1816	40470.716820071808	0
1	2016	47518.840313562119	1
1	2023	47671.394302699826	2
1	2025	47988.358848371554	1
1	2033	48021.88240775856	0
1	2050	48355.627621695529	1
1	2059	48458.746949768565	0
1	2065	48570.080896447379	1
1	2067	48630.762885390025	0
1	2098	49235.660176590299	1
1	2100	49378.952674965385	0
1	2163	50514.795107662412	1
1	2166	50516.724724421117	2
1	2171	50938.588537621867	1
1	2180	51079.120531953805	0
1	2189	51467.011734101997	1
1	2195	51706.550565171388	0
1	2257	53098.177279719798	1
1	2259	53142.499388703596	0
1	2350	56180.749498413536	1
1	2352	56277.996795352924	0
1	2369	56600.628773859063	1
1	2378	56855.355322421037	0
1	2605	62619.36659529965	1
1	2611	62891.454215291593	2
1	2616	63108.602298274966	1
1	2621	63166.163603120986	0
1	2627	63274.634714974578	1
1	2629	63461.807249634691	0
1	2642	63511.950364380218	1
1	2644	63556.916260039001	0
1	2650	63681.749655215687	1
1	2660	63870.099078966634	0
1	2880	70909.175678086271	1
1	2886	71387.419645644508	0
1	2977	73857.889545781219	1
1	2980	73962.251422944044	2
1	2982	74056.359490517235	1
1	2988	74218.355375616974	2
1	2990	74407.606919129825	1
1	2995	74441.353218221829	0
1	3001	74501.881426212873	1
1	3004	74599.312019277959	2
1	3007	74600.215019426906	3
1	3009	74632.315959864679	2
1	3014	74934.224292563221	3
1	3028	75046.905155229828	2
1	3033	75081.84816836164	1
1	3053	75784.208883750094	2
1	3063	75891.582976653624	1
1	3068	75955.992684958211	0
1	3074	76046.031669580637	1
1	3079	76106.968448629395	0
1	3093	76309.27080185923	1
1	3099	76592.748935263563	2
1	3101	76633.7506016637	1
1	3107	76806.086000159723	2
1	3112	76838.984569722579	1
1	3125	77184.001125990797	0
1	3235	80652.45014230004	1
1	3244	80735.196048901226	2
1	3246	80751.479607583109	1
1	3252	80938.914821914509	2
1	3255	80939.298931740314	3
1	3257	80991.351446167683	2
1	3262	81291.349820611475	1
1	3270	81485.727521225429	0
1	3294	81986.577952791399	1
1	3297	82048.2115503398	2
1	3303	82368.207896105099	1
1	3308	82387.912196491962	0
1	3351	83487.259784290086	1
1	3354	83511.905805454861	2
1	3361	83543.26744737424	3
1	3366	83753.83803105456	2
1	3374	83855.006147774985	1
1	3393	84542.195667418553	0
1	3399	84570.877769484851	1
1	3401	84607.588766648551	0
1	3431	85389.383052709203	1
1	3440	85707.479092691927	0
1	3547	88063.094033329122	1
1	3553	88245.833432585539	2
1	3555	88257.584814595932	1
1	3561	88299.284873382089	2
1	3570	88590.696238438019	3
1	3575	88667.267205479117	2
1	3581	88700.988442684749	3
1	3584	88880.623790675079	4
1	3587	89008.036721473947	5
1	3589	89103.473299593565	4
1	3595	89108.781776972356	5
1	3601	89203.391150399862	4
1	3606	89381.300581105927	3
1	3623	89644.526087538541	4
1	3626	89665.264425320567	5
1	3632	89765.98198744177	6
1	3634	89823.558088500546	5
1	3647	89939.469690780056	4
1	3658	90150.115958038537	3
1	3667	90282.482055718983	4
1	3670	90447.586155868753	5
1	3675	90576.127013825712	4
1	3684	90663.922244167449	3
1	3694	90790.696002576158	4
1	3700	90933.521111494804	3
1	3709	91028.613402895449	2
1	3723	91498.910644235556	3
1	3729	91688.013799254001	4
1	3731	91721.076451557631	3
1	3736	91749.212506466108	2
1	3741	91829.333764250291	1
1	3750	91926.935931328504	0
1	3755	91988.970197672023	1
1	3772	92617.342686984508	0
1	3857	94075.775147136882	1
1	3864	94281.273579313268	2
1	3872	94590.529753867817	1
1	3881	94665.695462147013	0
1	3909	95365.583315278972	1
1	3912	95463.581943456537	2
1	3914	95484.336463144807	1
1	3923	95822.712519554702	0
1	3944	96010.10896157015	1
1	3969	96600.967919669473	0
1	4009	97425.358174655222	1
1	4020	97720.962562685424	2
1	4023	97736.409198946327	3
1	4026	97842.907299105563	4
1	4028	97861.198016468337	3
1	4037	97941.060400792757	2
1	4042	98039.362229177445	1
1	4047	98056.875822190889	0
1	4058	98220.108769270106	1
1	4077	98943.200795592642	0
1	4095	99522.261864461385	1
1	4097	99612.281944082478	0
1	4223	103007.565872669508	1
1	4236	103219.036628886291	2
1	4239	103293.995323677185	3
1	4241	103323.191152766615	2
1	4247	103481.956172768996	3
1	4250	103501.269746713509	4
1	4252	103537.857498203579	3
1	4260	103721.342783233186	2
1	4265	103722.806186516356	3
1	4273	103788.740778703171	4
1	4275	103839.27622012191	3
1	4295	104151.727811474318	4
1	4297	104285.799421074137	3
1	4305	104594.96608803377	2
1	4315	104671.785993229708	3
1	4325	104852.142114884395	2
1	4340	105244.74531689476	1
1	4346	105297.751645911373	2
1	4348	105327.72282897823	1
1	4354	105328.720654921266	2
1	4361	105531.998356482469	3
1	4370	105934.16312247332	2
1	4379	105963.198281994358	1
1	4385	105999.627414923655	2
1	4387	106300.546767770488	1
1	4393	106379.18033904024	2
1	4399	106644.365873572905	1
1	4412	106882.735340630671	0
1	4501	109967.782487368258	1
1	4507	110190.303772148073	2
1	4510	110291.4864042664	3
1	4512	110372.931360296892	2
1	4520	110756.080549349679	1
1	4526	110891.74519100384	2
1	4529	110898.789116784347	3
1	4536	111127.364619976157	4
1	4538	111225.716304365981	3
1	4543	111300.411778916189	2
1	4549	111344.039834307844	3
1	4557	111641.437318122001	2
1	4569	111816.454400578184	1
1	4585	112255.764214773247	0
1	4611	112812.111520146554	1
1	4614	112899.187789978518	2
1	4617	112999.982949099367	3
1	4619	113084.845219971282	2
1	4627	113254.148786749677	1
1	4637	113469.362852963735	2
1	4642	113558.478143107662	1
1	4657	113853.600742246247	0
1	4727	115059.09160975937	1
1	4740	115580.010135131577	0
1	4858	117903.845981262877	1
1	4863	118102.189994992248	0
1	4893	118903.76302650572	1
1	4896	118941.798881398678	2
1	4898	118981.776329845913	1
1	4907	119463.247625117144	0
1	5002	121628.110643392448	1
1	5004	121858.547982775102	0
1	5010	121893.613959804196	1
1	5013	121897.499809490536	2
1	5015	122223.513039136958	1
1	5020	122284.708737456829	0
1	5026	122463.087124834194	1
1	5029	122580.139484125708	2
1	5032	122604.583658774441	3
1	5035	122720.349792492288	4
1	5037	122746.224546240829	3
1	5050	123012.486162950006	2
1	5062	123273.99851237017	1
1	5071	123391.857520888055	0
1	5081	123567.285979663988	1
1	5094	123749.417262916174	0
1	5417	135505.428223054863	1
1	5426	135775.874270409648	2
1	5433	135917.489260392364	3
1	5436	136025.365263831889	4
1	5442	136096.086071766629	3
1	5454	136490.654802722676	2
1	5460	136584.119220589476	3
1	5462	136647.840023960496	2
1	5467	137094.943671687268	1
1	5494	137588.339877084172	2
1	5496	137626.931925546094	1
1	5501	137646.100855283259	0
1	5510	137770.11712617792	1
1	5513	137889.197249498069	2
1	5519	137990.892472048052	1
1	5524	138080.633986273358	0
1	5533	138177.821474586095	1
1	5540	138538.475348139335	2
1	5546	138770.950517458557	1
1	5551	138887.35062051336	0
1	5561	139129.156903524315	1
1	5563	139302.25600800459	0
1	5672	141573.464554617026	1
1	5683	142274.509391207229	2
1	5688	142359.796401686091	1
1	5693	142412.233474589092	0
1	5738	143032.093197446585	1
1	5751	143385.428681155677	0
1	5763	143729.368223646861	1
1	5772	143778.698567472527	2
1	5774	143828.6525572511	1
1	5780	143910.509942077932	2
1	5783	143951.17069840202	3
1	5785	143982.843888885481	2
1	5791	144010.352767454582	3
1	5797	144297.516924502338	2
1	5802	144329.808484209462	1
1	5812	144700.11363223018	2
1	5826	145108.363519427423	1
1	5832	145177.935844849972	2
1	5835	145192.842183823445	3
1	5838	145307.318925100016	4
1	5840	145343.548521544545	3
1	5845	145634.988932347996	2
1	5861	145857.729007048542	1
1	5870	146072.932589171215	0
1	5980	148998.760513373536	1
1	5983	149151.201976903447	2
1	5986	149262.566707888153	3
1	5988	149264.730823089064	2
1	5996	149490.428958358122	1
1	6001	149622.075649468404	0
1	6111	152227.826138983046	1
1	6114	152279.65085260992	2
1	6126	152839.127078228574	1
1	6134	153008.604959400023	0
1	6191	154228.012500092966	1
1	6198	154254.00228056971	2
1	6200	154312.81366010348	1
1	6206	154325.437622442613	2
1	6209	154462.821236893808	3
1	6220	154684.467120534595	4
1	6222	154799.342091268976	3
1	6231	154983.653099175575	4
1	6233	155158.313682452278	3
1	6238	155395.520222941225	2
1	6250	155781.205740283827	1
1	6259	156138.024770141696	0
1	6272	156317.650542886599	1
1	6281	156627.548805233525	0
1	6291	156742.13756825932	1
1	6293	156973.857357548361	0
1	6411	159981.448365631261	1
1	6417	160315.562885441032	0
1	6426	160502.635104806002	1
1	6428	160586.536326565598	0
1	6452	160958.873673229463	1
1	6454	160988.94002966188	0
1	6484	161598.008096580175	1
1	6487	161606.660967488236	2
1	6498	161710.050278388713	1
1	6503	161763.517449237552	0
1	6525	162325.293072910852	1
1	6527	162335.427988316641	0
1	6544	162485.14110386334	1
1	6547	162689.882388310149	2
1	6557	162909.917973261472	1
1	6563	162996.601802775806	2
1	6565	163068.050106163404	1
1	6571	163107.984065331628	2
1	6573	163189.677937312571	1
1	6587	163304.034016345231	2
1	6597	163618.892863444761	1
1	6602	163638.118060939159	0
1	6705	165886.581216875377	1
1	6707	165893.532390659584	0
1	6713	165984.891006251164	1
1	6716	166012.280911906195	2
1	6719	166014.856029141036	3
1	6721	166076.777003271441	2
1	6734	166286.416883842017	3
1	6746	166468.194579933665	2
1	6756	166619.691361729019	3
1	6762	166834.13718299579	4
1	6767	167094.77655155019	3
1	6773	167200.088947389702	4
1	6778	167247.734173629726	3
1	6795	167362.881562931515	4
1	6798	167453.084445382017	5
1	6800	167487.564405184148	4
1	6810	167715.925454637223	5
1	6815	167800.198727087013	4
1	6820	167803.520417058776	3
1	6835	168102.319710618178	2
1	6841	168138.644714347846	3
1	6850	168432.099436675094	2
1	6855	168455.905105009611	1
1	6872	168695.039509497824	2
1	6875	168868.569722455268	3
1	6889	169075.90348418615	4
1	6892	169102.760762160984	5
1	6894	169126.330394530578	4
1	6900	169135.613260957348	5
1	6903	169135.675528050976	6
1	6905	169332.639614250804	5
1	6923	169524.359189517732	4
1	6929	169631.220286904092	5
1	6931	169756.240234053589	4
1	6947	170031.514189962739	5
1	6958	170151.482149014738	6
1	6960	170223.138098515506	5
1	6966	170345.143210052122	6
1	6971	170467.074516909106	5
1	6980	170600.637992551679	6
1	6987	170758.436155285541	7
1	6989	170766.006753146942	6
1	6995	170907.832802784433	7
1	7005	171277.44709203202	8
1	7007	171404.710710341938	7
1	7012	171590.468190148409	6
1	7025	171730.064024608876	5
1	7034	171959.03041949468	6
1	7036	172105.778389312236	5
1	7046	172206.719570809492	6
1	7052	172452.970755864229	5
1	7072	172901.401592218213	4
1	7084	173063.134959222685	3
1	7094	173096.674785054034	4
1	7100	173216.01785617345	5
1	7106	173272.396073538752	6
1	7109	173513.030834546582	7
1	7112	173539.190304224018	8
1	7121	173643.025578158271	7
1	7133	173756.096082497297	6
1	7143	173975.227866976309	7
1	7145	174000.499955038436	6
1	7151	174111.177433419461	7
1	7154	174302.947694238035	8
1	7156	174428.086879284989	7
1	7169	174791.792815262361	6
1	7175	174828.296794809447	7
1	7177	174949.948710175526	6
1	7189	175100.965202669509	5
1	7195	175174.619165412976	6
1	7197	175391.802120314848	5
1	7220	175936.973441708742	4
1	7231	176152.321492210326	3
1	7241	176204.113380243403	4
1	7257	176580.574509524636	3
1	7263	176602.081528519858	4
1	7266	176732.617225106839	5
1	7268	176932.230276524958	4
1	7274	176981.615411594512	5
1	7281	177104.46186071149	6
1	7287	177430.071984389706	5
1	7292	177433.688224381663	4
1	7297	177454.051305987236	3
1	7303	177538.061643656077	4
1	7309	177584.484490336525	5
1	7345	178369.910218426124	6
1	7347	178399.023878518401	5
1	7352	178430.047032399041	4
1	7361	178642.612866644618	5
1	7364	178718.032822620846	6
1	7370	178833.678005887491	5
1	7375	178895.836593205936	4
1	7381	178966.816113285297	5
1	7384	179009.024598926295	6
1	7387	179175.867509878602	7
1	7394	179258.790920473519	8
1	7401	179399.765015884509	9
1	7410	179633.439784217921	8
1	7418	179909.199983468188	7
1	7424	179927.208495977661	8
1	7426	179998.391134304864	7
1	7442	180418.083907575242	6
1	7451	180570.42907828456	5
1	7457	180605.32146429054	6
1	7459	180646.322725769428	5
1	7476	181016.399588207944	6
1	7478	181036.424685181014	5
1	7487	181127.660821102498	4
1	7493	181213.591406110858	5
1	7499	181565.45611533735	6
1	7508	181827.951784823386	5
1	7520	182075.126433530731	4
1	7525	182107.42920680338	3
1	7533	182292.346686166607	2
1	7550	182544.81502049415	3
1	7553	182644.599135333932	4
1	7559	182721.890138475163	3
1	7567	182911.373025374783	2
1	7573	182969.2143110323	3
1	7586	183200.60463998922	2
1	7595	183268.331399829583	3
1	7598	183332.530670404708	4
1	7605	183532.526858440668	5
1	7610	183696.291431793852	4
1	7616	183853.832824221509	5
1	7625	184058.828007358996	4
1	7637	184347.051494270859	3
1	7643	184469.1983204088	4
1	7653	184717.801560195101	3
1	7658	184813.085662522249	2
1	7664	184813.596222085266	3
1	7667	184875.772299592587	4
1	7676	185106.199601171447	3
1	7688	185584.229278127028	2
1	7694	185639.839540961679	3
1	7700	185730.190610842717	2
1	7706	185801.012842793539	3
1	7720	186268.202242952466	4
1	7722	186332.602197094716	3
1	7728	186352.607454918123	4
1	7737	186751.509674666358	3
1	7742	186855.855513581944	2
1	7753	187210.200661002024	1
1	7772	187676.120286020346	0
1	7807	188083.805275160093	1
1	7810	188168.615833911576	2
1	7813	188212.951695546213	3
1	7815	188252.043803902252	2
1	7820	188396.389997322409	1
1	7825	188466.546695805051	0
1	7831	188471.475883725412	1
1	7837	188863.757180912265	2
1	7839	188896.528593292369	1
1	7852	189072.588570501298	2
1	7862	189287.065560552188	1
1	7871	189396.86358122656	2
1	7873	189451.200183522342	1
1	7881	189639.054337870626	0
1	7894	189777.242283039035	1
1	7910	189997.775874752461	0
1	7920	190145.723625535149	1
1	7926	190330.021083429215	2
1	7929	190449.052416113434	3
1	7932	190502.589060264893	4
1	7935	190573.649581140807	5
1	7937	190577.020943165122	4
1	7943	190627.308676501446	5
1	7952	190794.944532718419	4
1	7957	190800.835940683646	3
1	7962	190910.156402070903	2
1	7967	190916.42907934166	3
1	7978	191195.08305023454	2
1	7983	191482.556544499857	1
1	7996	191916.20354656121	0
1	8020	192456.256275885788	1
1	8034	192782.463397207035	0
1	8195	197622.700673096792	1
1	8204	197814.863555293732	2
1	8209	198033.914411549242	1
1	8226	198090.138525409649	2
1	8229	198268.027111520581	3
1	8236	198458.934170311275	4
1	8241	198580.628056572535	3
1	8247	198651.66648227523	4
1	8250	198721.671142439025	5
1	8255	198990.54651909283	4
1	8260	199073.937915756153	3
1	8265	199089.861073098709	2
1	8274	199325.453244680324	1
1	8287	199514.984978267821	2
1	8290	199657.471406542308	3
1	8300	199768.723761260124	2
1	8305	199957.845871485555	1
1	8318	200015.35437219161	2
1	8331	200431.553267976784	3
1	8333	200514.228403387224	2
1	8345	200532.793304879688	3
1	8347	200630.929806555407	2
1	8360	200876.045572918281	3
1	8363	200969.868476571778	4
1	8365	200976.010137645142	3
1	8381	201156.220498531842	2
1	8387	201189.830929165702	3
1	8390	201249.159608902546	4
1	8393	201348.649960891057	5
1	8395	201362.808096973943	4
1	8400	201494.837745600944	3
1	8418	202056.525469488087	4
1	8427	202206.821673099669	3
1	8432	202238.465380955102	2
1	8437	202381.332042263606	1
1	8447	202630.795160801143	2
1	8459	202899.670985404017	1
1	8464	202905.302381986385	0
1	8470	202973.268105524345	1
1	8489	203537.088268070268	0
1	8502	203884.886161254452	1
1	8507	203946.674110814714	0
1	8529	204366.746162659986	1
1	8532	204375.51858136581	2
1	8534	204380.738929992157	1
1	8540	204435.590002265424	2
1	8546	204749.147573957937	1
1	8555	204988.624713899478	2
1	8561	205034.0839692221	1
1	8570	205088.585400488013	0
1	8579	205259.414966046579	1
1	8584	205433.654754634562	0
1	8614	206079.024409790667	1
1	8617	206204.942078396636	2
1	8620	206299.370733190893	3
1	8623	206312.291017245837	4
1	8632	206394.855855170575	5
1	8634	206424.109610437202	4
1	8639	206509.994103442663	3
1	8647	206610.350644077824	2
1	8653	206826.779090961906	3
1	8659	206892.339581090572	2
1	8679	207393.85794046253	3
1	8694	207702.776383917497	2
1	8700	207726.347952664057	3
1	8706	207760.002179110272	4
1	8708	208017.007510298649	3
1	8713	208046.546656970653	2
1	8719	208053.96027615316	3
1	8722	208072.526906582567	4
1	8724	208370.458534180733	3
1	8729	208381.792930323685	4
1	8748	208699.899243833058	5
1	8751	208700.725974253168	6
1	8754	208731.527743457067	7
1	8756	208762.924434337551	6
1	8761	208763.009981682242	5
1	8770	209153.360020236659	4
1	8780	209192.741524000893	5
1	8789	209279.305585042361	4
1	8800	209907.838895421091	3
1	8805	209956.668218970085	2
1	8810	210028.458024172415	3
1	8825	210290.391329761313	2
1	8830	210644.862423008094	1
1	8836	210668.450831128073	2
1	8841	210737.388990248341	1
1	8854	210932.841361171183	2
1	8860	210958.728109571801	1
1	8876	211358.299181393895	0
1	8892	211839.409032143916	1
1	8898	211986.157157970379	0
1	8904	212045.258488662543	1
1	8907	212181.510205268874	2
1	8909	212354.928817066152	1
1	8915	212439.972888722155	2
1	8922	212522.052943169024	3
1	8924	212531.4209660531	2
1	8936	213032.648014852393	1
1	8941	213167.699977298985	0
1	9048	216091.850754490837	1
1	9057	216453.256490951185	0
1	9117	217613.546411762049	1
1	9120	217629.339898253191	2
1	9125	217787.382218329017	1
1	9131	217842.313306899481	2
1	9138	217992.75449475769	3
1	9141	218065.875349645448	4
1	9143	218328.662166236721	3
1	9148	218395.441316214414	2
1	9157	218604.691450767	1
1	9169	218949.954462034973	0
1	9187	219240.457789707399	1
1	9201	219741.936953111576	0
1	9330	224095.971438522813	1
1	9333	224134.292606429195	2
1	9336	224221.224764612883	3
1	9339	224281.681844724509	4
1	9348	224479.677024044322	3
1	9357	224689.628758890772	4
1	9364	224870.558767172389	5
1	9366	224955.842382246323	4
1	9371	225118.201467869625	3
1	9393	225503.271410490076	4
1	9395	225519.933863663609	3
1	9404	225771.270672013922	4
1	9407	225782.643910322457	5
1	9410	225873.153757960906	6
1	9412	225904.542406851651	5
1	9422	225995.310642703082	6
1	9431	226159.399976804547	5
1	9436	226534.630761854172	4
1	9456	226827.977404900617	5
1	9459	226910.37107502361	6
1	9461	226918.181147537689	5
1	9466	226937.6221501904	4
1	9478	227067.290392950635	5
1	9499	227583.021301476991	6
1	9501	227600.501577118106	5
1	9507	227614.060739559494	6
1	9513	227657.002230273761	7
1	9523	227886.82438183258	8
1	9525	227920.792877374442	7
1	9534	227950.228758402879	8
1	9536	227999.14469192718	7
1	9541	228089.36918748499	6
1	9546	228216.472746776111	5
1	9551	228242.030901581479	6
1	9554	228287.89088935813	7
1	9566	228518.825720541982	8
1	9582	229060.541363749475	7
1	9587	229163.691442738782	6
1	9592	229332.492879217716	5
1	9598	229546.983854049274	6
1	9600	229561.458678021721	5
1	9605	229570.115591835742	6
1	9613	229745.495034556862	7
1	9618	229920.334076303552	6
1	9627	230021.564913436996	5
1	9640	230371.081422939719	4
1	9649	230632.929599415205	3
1	9664	230986.624305368896	2
1	9678	231144.413299277072	3
1	9680	231292.300116110819	2
1	9685	231434.056321559168	1
1	9695	231767.427408605715	2
1	9698	231781.418686311899	3
1	9707	231898.239591531278	2
1	9716	232075.161195098917	1
1	9725	232300.674184814738	2
1	9744	232776.029044855209	1
1	9749	232817.811079434745	0
1	9755	232853.703545489014	1
1	9757	232880.259358303847	0
1	9763	232917.159255804562	1
1	9773	233490.971412024955	0
1	9786	233561.197377198055	1
1	9792	233841.870588808946	0
1	9913	236991.980897594935	1
1	9918	237092.669668956624	0
1	9924	237353.313350434873	1
1	9927	237397.035337500383	2
1	9930	237469.892175930469	3
1	9933	237582.557760501229	4
1	9935	237705.572020585996	3
1	9940	237792.198602057931	2
1	9952	237978.892637617628	1
1	9973	238426.406797100149	2
1	9975	238642.531694988685	1
1	9980	238987.790764564586	0
1	10115	242344.274649203736	1
1	10127	242595.492588138332	0
1	10133	242633.035330762901	1
1	10136	242770.263496682308	2
1	10142	243095.641769580649	1
1	10148	243105.044372416452	2
1	10154	243213.238447519219	1
1	10163	243455.862555882086	0
1	10181	243965.475106389053	1
1	10183	244080.991829643132	0
1	10344	248888.683342150869	1
1	10346	249208.997459918183	0
1	10352	249365.645920691771	1
1	10365	249758.039058042028	0
1	10509	254777.787894891087	1
1	10515	254987.009827621855	0
1	10541	255350.42046598949	1
1	10547	255410.881677413529	2
1	10549	255458.874344974974	1
1	10559	255483.996122333315	2
1	10567	255768.422275260227	1
1	10577	255778.134157281096	2
1	10580	255888.395652240638	3
1	10586	256032.901706506141	2
1	10599	256308.277469308723	3
1	10601	256391.786602194769	2
1	10606	256493.70727936759	1
1	10615	256679.47237166798	2
1	10631	256824.189484896317	3
1	10634	256897.599595221831	4
1	10641	256971.7444067933	5
1	10647	257067.925757960764	4
1	10652	257206.179019697228	3
1	10661	257316.143762104858	4
1	10663	257329.903514320167	3
1	10669	257348.18967581857	4
1	10671	257430.139009437167	3
1	10676	257510.639993495819	4
1	10694	257884.590610834056	3
1	10707	258318.517990091352	4
1	10709	258404.683149662005	3
1	10719	258678.169079742628	4
1	10721	258724.183151125324	3
1	10726	258727.420889182591	2
1	10732	258920.823040682997	3
1	10740	259190.98949302941	2
1	10745	259250.93017135609	3
1	10756	259485.993931181865	2
1	10766	259853.139192317701	3
1	10772	259961.488202332163	2
1	10781	260179.337084944708	1
1	10790	260572.209296086939	0
1	10796	260578.188176614356	1
1	10802	260637.960972739602	0
1	10894	262816.011301174143	1
1	10897	262848.986064814628	2
1	10899	262888.760361589722	1
1	10904	262909.224680610139	0
1	10918	263209.195609560166	1
1	10920	263497.5965981319	0
1	10930	263603.561690125376	1
1	10941	263763.268943541685	2
1	10943	264044.521026455097	1
1	10955	264471.940130688568	0
1	11110	269321.936246803599	1
1	11116	269555.481013426913	2
1	11121	269819.189440541962	1
1	11126	269843.277564322364	0
1	11135	270060.755651179927	1
1	11137	270145.217060193278	0
1	11193	271148.707220895876	1
1	11196	271174.133197080607	2
1	11198	271457.489596064264	1
1	11204	271601.217179199063	2
1	11207	271601.439986227858	3
1	11214	271716.683336312595	4
1	11216	271799.702112085976	3
1	11221	271812.050235427246	2
1	11231	272149.330132823423	3
1	11237	272244.427772928522	2
1	11243	272335.748758266941	3
1	11245	272521.315622291589	2
1	11258	272845.45464181088	1
1	11263	273321.183448161789	0
1	11373	276735.888259353303	1
1	11378	276799.44965078706	0
1	11384	276816.140009252231	1
1	11386	276982.45844549031	0
2	0	0	0
2	275	7840.438321550533	1
2	280	7879.725970411737	0
2	286	7889.513467280258	1
2	291	8124.880329758477	0
2	617	15420.038716794979	1
2	619	15541.142192894649	0
2	758	17615.205090267023	1
2	760	17670.414551588061	0
2	789	18313.57938444371	1
2	792	18328.967421484908	2
2	794	18335.084565094027	1
2	811	18649.076628216913	0
2	974	22331.496540536533	1
2	976	22383.69792531993	0
2	982	22457.509675669843	1
2	984	22554.725183706158	0
2	1220	29184.973955126981	1
2	1225	29227.329832633379	0
2	1238	29385.063457480985	1
2	1242	29448.532371331483	2
2	1246	29512.276426732494	3
2	1254	29709.304444116086	2
2	1259	29758.642957994136	1
2	1264	29761.927520811512	0
2	1331	30788.534367727618	1
2	1347	30966.649477240983	0
2	1360	31420.609024772923	1
2	1362	31428.748985428317	0
2	1369	31498.33614167939	1
2	1384	31626.588233408063	0
2	1466	33302.871519076209	1
2	1468	33329.458107082676	0
2	1481	33596.146884711413	1
2	1483	33642.76813161741	0
2	1490	33659.58720285574	1
2	1492	33801.516462998942	0
2	1667	37429.497418526514	1
2	1669	37496.07895373042	0
2	1703	38362.274362395064	1
2	1705	38435.545302784548	0
2	1733	38977.984020264773	1
2	1735	39056.739403779165	0
2	1756	39474.735089621053	1
2	1766	39650.213644077955	2
2	1768	39681.70987854387	1
2	1773	39691.303129122164	0
2	2069	48630.762885390025	1
2	2071	48733.975147825677	0
2	2388	56995.756182000045	1
2	2390	57009.681489456821	0
2	2399	57297.434454922009	1