version 2
run Iteration-10-20200521-09:51:25-70236
attr configname Iteration
attr datetime 20200521-09:51:25
attr experiment Iteration
attr inifile omnetpp.ini
attr iterationvars "$i=1, $j=11, $0=15-(1+11)"
attr iterationvarsf i=1,j=11,15-(1+11)-
attr measurement "$i=1, $j=11, $0=15-(1+11)"
attr network Network
attr processid 70236
attr repetition 0
attr replication #0
attr resultdir results
attr runnumber 10
attr seedset 10
itervar i 1
itervar j 11
param **.resourcePool.amount 1
param **.resourcePool1.amount 11
param **.resourcePool2.amount 15-(1+11)
param **.source.interArrivalTime exponential(6min)
param **.delay.delay uniform(4min,28min)
param **.delay1.delay uniform(10min,28min)
param **.delay2.delay uniform(4min,16min)
param **.allocate.resourceModuleName "\"Network.resourcePool\""
param **.allocate1.resourceModuleName "\"Network.resourcePool1\""
param **.allocate2.resourceModuleName "\"Network.resourcePool2\""
param **.deallocate.resourceModuleName "\"Network.resourcePool\""
param **.deallocate1.resourceModuleName "\"Network.resourcePool1\""
param **.deallocate2.resourceModuleName "\"Network.resourcePool2\""
param **.router.randomGateIndex "uniform(0, 1) > 0.2 ? 0 : 1"

vector 0 Network.allocate queueLength:vector ETV
attr interpolationmode sample-hold
attr title "queue length, vector"
vector 1 Network.allocate1 queueLength:vector ETV
attr interpolationmode sample-hold
attr title "queue length, vector"
vector 2 Network.allocate2 queueLength:vector ETV
attr interpolationmode sample-hold
attr title "queue length, vector"
vector 3 Network.sinkStat lifeTime:vector ETV
attr interpolationmode none
attr title "lifetime of arrived jobs, vector"
attr unit s
vector 4 Network.sink lifeTime:vector ETV
attr interpolationmode none
attr title "lifetime of arrived jobs, vector"
attr unit s
0	0	0	0
0	5	658.922824628228	1
0	7	801.039203303503	0
0	12	904.581480809956	1
0	14	1401.929149106772	2
0	20	1953.492656844305	1
0	25	2043.904127993475	2
0	27	2053.081953816841	3
0	29	2132.542974524613	4
0	35	2577.195923035921	5
0	37	2688.311837588207	6
0	39	2755.005030064636	7
0	45	2865.159880871374	8
0	47	2923.826768979378	9
0	49	3033.475965345847	8
0	58	3340.10397070761	9
0	60	3341.528160335992	10
0	62	3488.977299224039	11
0	64	3747.397514025102	12
0	66	4258.17449976747	11
0	71	4544.698730998721	12
0	77	4886.017149884311	13
0	87	5346.54872757366	14
0	93	5668.348686108935	13
0	98	5814.50554031912	14
0	100	5865.243762978021	15
0	102	6146.790899096949	16
0	104	6338.98339196069	17
0	106	6394.189172301726	18
0	108	6687.217226857889	17
0	113	6937.201017556724	18
0	119	7340.857445479793	19
0	125	7464.827919426012	18
0	130	7550.772506672784	19
0	132	7896.993458325117	20
0	138	8017.047719380812	21
0	140	8041.459807783511	22
0	146	8329.80807271843	21
0	151	8419.804538448786	22
0	161	9008.728899225374	23
0	163	9349.506307224836	24
0	165	9435.304161767114	23
0	174	10153.214609856356	22
0	179	10211.002431209315	23
0	181	10339.765620644362	24
0	191	10523.476074236084	23
0	196	10530.435687960616	24
0	198	10547.727059388934	25
0	204	10756.453651499726	26
0	206	10803.273978993384	27
0	208	11088.81083100558	28
0	214	11562.491118535452	29
0	216	11616.278053031052	30
0	218	11696.136435563107	31
0	224	11956.777178655018	30
0	233	12220.369203203868	31
0	239	12726.19084360778	32
0	241	12852.5229527528	33
0	247	13394.842441836943	32
0	252	13593.6894429769	33
0	258	13820.486118577296	34
0	264	14571.235630764399	35
0	266	14697.622455154546	36
0	268	14732.945850183688	37
0	270	14783.614819464888	38
0	276	15050.392489294161	37
0	281	15403.160380792406	38
0	283	15508.051394196798	37
0	288	15577.65026520744	38
0	290	15784.048470544123	39
0	296	16605.484424653103	38
0	309	17365.210067325466	39
0	311	17469.435803311019	40
0	317	17502.562971870055	39
0	322	17537.052075405425	40
0	328	17902.803894912671	41
0	330	18070.579519069451	42
0	332	18314.479878815462	41
0	337	18391.731697064722	42
0	343	18557.94561774527	41
0	348	18678.248793340891	42
0	350	18708.185058479315	43
0	352	18839.407005476711	44
0	354	18935.861769987703	45
0	360	18980.785076292803	44
0	369	19080.420397182123	45
0	371	19162.125670418505	46
0	381	19364.167895026332	47
0	383	19455.87002493745	48
0	397	19820.172609297104	49
0	399	19836.031913042304	50
0	401	19931.360131966749	51
0	403	20335.100705223729	50
0	412	20694.40061230382	51
0	414	21376.486892896344	50
0	419	21452.030225427053	51
0	425	21891.915904998005	52
0	427	22121.866736682703	51
0	440	22510.653585637384	52
0	442	22620.130925134098	53
0	444	22739.969977759715	54
0	450	22868.821338887392	55
0	452	22878.083392276922	56
0	454	22892.202435134079	57
0	456	23022.183903041922	58
0	462	23101.258684071352	57
0	467	23167.671472754233	58
0	469	23341.651124442567	57
0	478	23561.006329853992	58
0	480	24056.607072415367	59
0	482	24181.325080678929	60
0	484	24235.862427771074	61
0	486	24259.769332647617	62
0	496	24395.981230037858	61
0	501	24436.566699968091	62
0	503	24682.552234333082	63
0	505	24922.531749478509	64
0	507	25125.160524333467	63
0	520	25517.704131315102	62
0	533	26281.811548043334	63
0	535	26316.895055870921	64
0	549	26960.926069068362	63
0	558	27009.425241784739	64
0	560	27052.456846781283	65
0	562	27508.932567718074	66
0	564	27791.564257481636	67
0	566	27869.850429455389	66
0	571	28109.063517884848	67
0	585	28832.137402396768	68
0	591	28871.422164116189	69
0	593	29114.217954778247	70
0	595	29147.800396690716	69
0	600	29372.742903501925	70
0	602	29429.81895976757	69
0	607	29698.011881628024	70
0	609	29716.658526435425	71
0	611	29798.253759872066	72
0	613	29899.057933958818	71
0	618	29946.649952375603	72
0	620	29969.525487082182	73
0	622	30040.486452487851	74
0	628	30289.4659560076	75
0	630	30392.296401592777	76
0	636	30555.99027373804	77
0	642	30644.868820141543	78
0	656	31147.547338656852	79
0	658	31354.59919535612	78
0	663	31638.924672844553	79
0	665	31937.798306132306	78
0	670	32114.842030000072	79
0	672	32172.342331933964	80
0	678	32780.694178163678	81
0	684	33039.286465468456	80
0	689	33207.262569395501	81
0	691	33469.878144307727	82
0	693	33572.778308261073	83
0	699	33582.688843804051	82
0	720	34648.873648288824	83
0	722	34801.362966121047	84
0	724	34824.891215423693	83
0	733	35159.208123544802	82
0	738	35735.576237252627	83
0	740	35740.965990388154	84
0	750	36167.406203831186	83
0	755	36231.910393288045	84
0	761	36796.768249813296	85
0	767	37093.59771844389	86
0	769	37232.567825476279	85
0	778	37848.985776360246	86
0	784	38293.195566424817	87
0	786	38351.081790962259	88
0	792	38519.16876411387	89
0	794	38649.302278990497	88
0	799	39009.967077536925	89
0	805	39049.749519553587	90
0	807	39258.230490428021	91
0	809	39352.792132943696	92
0	811	39418.227275406221	93
0	817	39799.909101758587	94
0	819	39888.503974537005	93
0	828	40320.293674879654	94
0	830	40406.163516201468	95
0	832	40985.6849293275	96
0	834	41307.915611276974	95
0	847	42162.629532731168	96
0	853	42242.10752162491	97
0	855	42361.697567226936	96
0	860	42448.355380989628	97
0	866	42849.588890860322	98
0	868	43135.796755673935	97
0	877	43419.982922161569	96
0	882	43827.300045328279	97
0	888	43856.166976663841	98
0	890	43959.677918788629	99
0	892	44134.752307572304	100
0	894	44292.938736503542	101
0	900	44359.18246008847	102
0	906	44628.309632959415	101
0	915	45015.020859355044	102
0	917	45324.565615021811	103
0	927	45730.944221737434	102
0	932	46003.968511936545	103
0	938	46241.450487527447	104
0	940	46307.790687094082	103
0	945	46526.555654643738	104
0	947	46578.268560739805	103
0	952	47026.291277858532	104
0	954	47089.749407197178	105
0	960	47310.58725298591	106
0	970	47569.694789108719	107
0	976	47649.502614697618	108
0	982	48206.480446616759	107
0	991	48473.236708427619	108
0	997	49153.24582796495	109
0	1003	49578.112853142073	108
0	1008	49641.914782773855	109
0	1010	49836.096572539282	110
0	1012	49836.451948300654	111
0	1014	49881.136512844063	112
0	1016	50379.990200324944	113
0	1018	50475.757300863614	112
0	1023	50528.856007598759	113
0	1025	50702.854117959949	114
0	1031	51155.800966292412	115
0	1037	51184.679652621801	116
0	1039	51267.698955223073	117
0	1045	51780.407106728538	118
0	1047	51796.965506608238	117
0	1052	51845.661113504233	118
0	1058	52229.536159232618	119
0	1060	52460.082947398176	118
0	1065	52815.414813321239	119
0	1067	53008.487492401126	120
0	1069	53043.802944890655	121
0	1071	53080.477323107772	122
0	1081	53684.679140693088	123
0	1083	54034.687723788073	122
0	1092	54130.249219044842	123
0	1098	54256.278824833646	124
0	1100	54327.101990849961	125
0	1102	54434.190100715685	126
0	1104	54841.211241158297	125
0	1113	55383.870215571745	126
0	1115	55597.59499885202	127
0	1121	55852.642662839633	128
0	1127	56224.789935572644	129
0	1129	56275.550011778822	128
0	1134	56311.105018414378	129
0	1136	56327.402035132436	130
0	1142	57156.703707399418	129
0	1147	57544.135541340888	130
0	1153	57853.185955482175	129
0	1162	58266.505192537834	130
0	1164	58425.023101589619	131
0	1166	58443.183824045393	132
0	1172	58539.994496899297	131
0	1177	58574.163003670831	132
0	1183	58686.530823950255	133
0	1189	58838.961672994684	134
0	1191	58996.110765665646	135
0	1201	59216.506967799687	136
0	1203	59498.22819812866	137
0	1209	59825.576701956441	136
0	1214	60095.886232932617	137
0	1216	60104.791221594698	138
0	1218	60142.189756373977	139
0	1220	60646.573277349224	138
0	1229	60841.932483644663	139
0	1231	61286.459122470502	140
0	1237	61475.792509893304	141
0	1243	61754.583914975069	142
0	1245	62069.343351582637	141
0	1250	62091.87674540063	142
0	1256	62369.980254989779	143
0	1258	62664.786631574327	144
0	1264	63525.594508546045	143
0	1273	64230.421181920614	144
0	1275	64292.422365816882	143
0	1280	64431.993700889807	144
0	1282	64446.086677129204	145
0	1292	65110.968772443583	144
0	1297	65246.520778930689	145
0	1299	65358.397606010059	146
0	1305	65652.848789292028	145
0	1314	65925.886244399899	146
0	1320	66205.99009356558	147
0	1322	66486.526342975547	146
0	1327	66668.762189555308	147
0	1329	66691.056564406354	148
0	1335	66751.671944018046	149
0	1337	66971.669447526329	150
0	1343	67065.191910366006	151
0	1345	67408.537398748441	152
0	1347	67544.164280997914	153
0	1349	67546.277153427353	152
0	1358	67709.371195383997	153
0	1364	68064.937546845817	154
0	1370	68684.706184645375	155
0	1372	68807.118052656259	156
0	1374	68977.796917826971	157
0	1380	69093.465310937935	158
0	1382	69147.24493541812	157
0	1391	69424.277928106316	158
0	1393	69729.833683716705	157
0	1398	69866.571940392998	158
0	1400	70020.826861159192	159
0	1402	70067.803748945492	160
0	1404	70242.719867056266	161
0	1406	70463.697365668216	162
0	1416	70923.967447290769	161
0	1421	71081.855343061768	162
0	1423	71159.163927450418	163
0	1437	71907.788938376439	164
0	1439	72143.994545573941	163
0	1444	72463.383017546708	164
0	1454	73096.874305455317	165
0	1456	73174.233195087982	166
0	1458	73503.141932142834	167
0	1460	73620.449132817438	166
0	1469	73693.652815673468	167
0	1471	74261.963372401394	168
0	1473	74305.521041420702	169
0	1479	74767.969971985993	170
0	1481	74768.008249478793	171
0	1483	75200.967940362742	170
0	1492	75291.747316007201	171
0	1494	75657.582192855048	172
0	1496	75658.436763457578	173
0	1498	75661.771760384248	174
0	1500	75798.387335244918	175
0	1502	76080.659730119336	176
0	1508	76252.752880054166	175
0	1513	76528.206093152497	176
0	1519	76725.895529170546	177
0	1521	76921.269855047293	178
0	1523	76962.72801780199	177
0	1528	77095.764064864111	178
0	1530	77137.041660748304	179
0	1536	77956.310910018446	180
0	1538	77978.135330627118	181
0	1544	78309.994135166263	182
0	1546	78336.612870163891	183
0	1548	78386.819861090549	184
0	1550	78453.441196987977	183
0	1559	78517.623674564762	184
0	1565	78719.213865798235	185
0	1567	78818.677141117504	184
0	1572	79238.965314426157	185
0	1582	79899.717595363608	184
0	1587	79997.687881455766	185
0	1589	80141.084670238486	186
0	1595	80450.739897834709	185
0	1600	80514.145195791359	186
0	1606	80641.256602696573	187
0	1608	80772.284504147818	186
0	1613	81064.949231714376	187
0	1619	81180.771621512821	186
0	1624	81483.529763316651	187
0	1630	81629.598427536538	186
0	1655	82665.83092076646	187
0	1661	82936.762243451284	188
0	1663	82988.879062729528	187
0	1676	83365.789415221601	188
0	1678	83559.805510240247	187
0	1687	83893.223147915121	188
0	1689	84058.253408867002	189
0	1699	84942.113340655913	188
0	1704	85248.61019856791	189
0	1706	85407.562162481769	190
0	1708	85431.721499469263	191
0	1714	85767.835226031592	190
0	1719	85877.295600434113	191
0	1729	86810.306831272891	190
0	1742	87349.721848751059	189
0	1747	87967.360212103637	190
0	1749	87988.85103288549	191
0	1751	88117.619493861087	192
0	1757	88224.370726546569	193
0	1763	88481.420525442656	194
0	1765	88597.569190422645	193
0	1786	90091.25572905933	192
0	1791	90407.946319549175	193
0	1793	90470.862725261012	194
0	1795	90593.51833661978	195
0	1801	90982.626811212646	196
0	1803	91052.594875036452	197
0	1805	91340.703073372578	198
0	1807	91510.214799689702	197
0	1816	91579.035163544222	198
0	1818	91815.281315540644	199
0	1820	91888.736375440554	200
0	1822	91943.350245902602	201
0	1824	92287.444361346703	202
0	1826	92759.855741692995	203
0	1832	92957.765695723347	202
0	1837	93544.644957040843	203
0	1843	93898.843088897167	204
0	1845	93941.942251371793	203
0	1850	94152.037190528843	204
0	1852	94268.340652400962	205
0	1858	94460.310508209791	206
0	1860	94562.2651754046	205
0	1865	94736.332005388225	206
0	1871	95370.213219424939	207
0	1881	95544.947559582642	206
0	1886	95727.882126051549	207
0	1888	96069.389299648615	208
0	1898	96477.137320193116	209
0	1900	96565.619364364808	210
0	1902	96654.686501162117	211
0	1908	97132.312355610183	210
0	1913	97386.381121585718	209
0	1918	97495.220388590217	210
0	1920	97546.206137679105	211
0	1922	97606.069497724018	212
0	1932	97951.551447632364	211
0	1941	98203.743802207164	210
0	1954	98463.233458167732	211
0	1956	98569.733796092324	210
0	1961	98829.214378754251	209
0	1966	98993.997472038412	210
0	1968	99036.700704487092	211
0	1970	99165.720990682595	210
0	1979	99195.939932733323	211
0	1981	99246.683729494302	212
0	1995	99640.228598754446	213
0	1997	99782.812860150249	214
0	1999	99830.902305143528	213
0	2004	99897.356674552442	214
0	2006	99921.192739508238	215
0	2016	100154.318532204868	216
0	2018	100304.266272383385	215
0	2031	100600.888333874543	216
0	2041	101056.896597106391	217
0	2043	101178.927637497537	216
0	2048	101365.810007804208	217
0	2058	101472.671336131744	216
0	2063	101774.698549603786	217
0	2065	101798.431858761279	218
0	2075	102141.305369464155	219
0	2085	102520.971921886042	220
0	2087	102651.844082149319	219
0	2096	102660.640207829126	220
0	2098	102674.336352872975	221
0	2104	103008.244890347249	222
0	2114	104208.851210410349	221
0	2119	104213.933818267084	222
0	2121	104310.705615130986	223
0	2123	104416.811861071169	224
0	2125	104423.845206736888	225
0	2127	104573.928558531954	226
0	2129	104633.150334645684	227
0	2131	104737.070239992677	228
0	2133	104749.486831246111	229
0	2135	104834.610200645976	228
0	2140	104870.832776745138	229
0	2142	105031.769226986593	230
0	2144	105163.402532325357	231
0	2150	105791.828347495755	232
0	2152	105983.143930505138	233
0	2154	106148.233530050347	234
0	2160	106253.328309488582	235
0	2162	106350.570930271346	236
0	2164	106363.044636020308	237
0	2170	106488.45238973444	236
0	2179	106897.037915001511	237
0	2181	107252.894844741876	238
0	2183	107695.062326500767	237
0	2192	107943.51183038478	238
0	2194	108154.031396950582	239
0	2196	108207.678811001235	238
0	2209	108969.372027585923	239
0	2211	109245.076566609198	238
0	2220	109528.734644649364	239
0	2226	109661.850998626624	240
0	2228	109714.314142663822	241
0	2234	109984.809866078503	242
0	2236	110024.81515496073	243
0	2238	110115.312650288099	242
0	2243	110294.205804354409	243
0	2245	110397.975504445487	242
0	2250	110468.404076221352	243
0	2256	111125.547533038571	244
0	2262	111257.069092067534	243
0	2267	111403.033070600524	244
0	2269	111424.884894923017	245
0	2275	111613.849617983591	246
0	2277	111656.420861695981	247
0	2279	111725.325796625972	248
0	2285	111857.67955278104	247
0	2294	112042.957386791449	248
0	2308	112911.429892226537	249
0	2310	113035.312224987884	250
0	2312	113058.451650191382	251
0	2318	113438.229729369041	252
0	2320	113467.718548225815	251
0	2325	113803.950866567276	252
0	2327	113851.114080371911	251
0	2332	114014.652559204347	252
0	2338	114606.30035829584	253
0	2352	115481.509992825443	252
0	2357	115556.098661210619	253
0	2359	116007.979234756708	254
0	2369	117135.595634291524	253
0	2378	117433.336125036275	254
0	2380	117492.752387794729	255
0	2382	117703.535274243819	256
0	2384	117790.525276335532	255
0	2393	118164.991218671863	256
0	2395	118279.716874817962	255
0	2404	118739.757026150889	256
0	2406	118783.544697013506	257
0	2408	119034.33700090927	258
0	2418	119668.66493308043	257
0	2427	119879.399019571369	258
0	2433	120268.420884127466	259
0	2435	120488.365333872401	260
0	2437	120825.506921122427	259
0	2446	121005.240851729205	260
0	2448	121045.159083246876	261
0	2450	121216.272513508912	262
0	2456	121473.542595078066	263
0	2458	121846.867975766151	264
0	2460	122139.696293483133	263
0	2469	122365.586102392603	264
0	2471	122405.466931025657	265
0	2477	122600.112506235594	264
0	2490	123634.015584709806	265
0	2492	123751.822136753996	266
0	2498	124003.44030779844	265
0	2507	124657.458472187275	264
0	2512	125009.811369052887	265
0	2526	125896.941567306458	266
0	2528	126077.766915635722	267
0	2534	126239.973321343416	266
0	2539	126278.170312579327	267
0	2541	126283.424621877221	268
0	2543	127002.405490996891	267
0	2552	127283.575015961798	268
0	2554	127471.596494215184	267
0	2563	128052.496460350805	266
0	2568	128061.311796567802	267
0	2574	128503.414643752032	266
0	2579	128621.757021118758	267
0	2597	129277.393435993521	268
0	2599	129353.279482198266	269
0	2605	129510.463521838885	270
0	2607	129607.53757550612	271
0	2617	130052.694679210537	270
0	2622	130055.690674692957	271
0	2624	130400.071179525268	272
0	2626	130572.743245373123	271
0	2631	131292.977864984053	272
0	2641	131715.864721309852	273
0	2651	132154.943737956338	272
0	2656	132333.502662916967	273
0	2658	132920.877285322821	274
0	2660	133026.49881899308	275
0	2662	133152.378268837188	276
0	2664	133154.035241539233	275
0	2669	133177.58831226905	276
0	2671	133184.763017719342	277
0	2677	133658.042754429035	276
0	2682	133956.651519430503	277
0	2692	134398.837786047371	278
0	2702	135041.184332942902	279
0	2704	135097.155776833974	280
0	2710	135236.546630906515	279
0	2715	135353.473787582959	280
0	2717	135364.311060986602	281
0	2719	135905.888811714	282
0	2721	135910.026770033263	283
0	2723	136167.096754769437	282
0	2728	136756.337940029661	283
0	2730	136779.161575776844	284
0	2732	136884.952113973551	283
0	2741	137356.749579405773	284
0	2751	137702.239958402278	285
0	2753	137716.288534114389	286
0	2759	137986.321964422815	285
0	2764	138030.493885144833	286
0	2770	138541.140324795624	287
0	2780	138932.642532156169	288
0	2782	138938.782121460864	289
0	2784	139161.234659734346	290
0	2786	139324.841119321637	289
0	2795	139872.379041397889	290
0	2797	140056.802659685481	291
0	2799	140244.156235056572	290
0	2804	140673.938092919469	291
0	2806	140897.278835336321	290
0	2815	141284.350510957294	289
0	2820	141340.584438555525	290
0	2822	141434.094430664123	291
0	2828	141726.812678063863	290
0	2837	141919.312262922297	291
0	2839	142008.825740683284	292
0	2841	142031.044349195848	293
0	2859	142631.069589213957	294
0	2861	142902.101959132805	295
0	2863	143129.964475753361	294
0	2868	143169.245037879067	295
0	2870	143196.785797521648	296
0	2872	143198.646884804299	297
0	2882	143336.369846104494	298
0	2888	143758.026363300547	299
0	2890	143825.79662571205	300
0	2892	143918.162141425174	301
0	2894	144062.366982782835	300
0	2899	144344.381850416693	301
0	2909	144895.648218626732	300
0	2914	144945.889967538818	301
0	2920	145072.148976218323	302
0	2922	145212.481461839699	303
0	2924	145330.072232150864	304
0	2934	145974.049202846939	303
0	2943	146558.005659155437	304
0	2945	146597.544662499522	305
0	2947	146846.504588720932	306
0	2953	147031.472517021232	307
0	2955	147066.552666998723	308
0	2957	147388.552835295553	307
0	2966	148355.527917156572	306
0	2971	148377.212307491754	307
0	2973	148423.50968774492	308
0	2975	148457.525298988078	309
0	2977	148554.528501306348	310
0	2979	148575.345151281832	311
0	2981	148687.654099658065	312
0	2983	148715.681069503183	311
0	3000	149458.436244028265	310
0	3005	149464.165626157872	311
0	3011	149984.157337928767	310
0	3020	150439.144607763825	311
0	3022	150595.879236833111	312
0	3028	150853.57945448004	313
0	3030	151166.778750280495	312
0	3043	151412.360290016031	313
0	3053	151590.531689626773	314
0	3055	151592.055518990026	315
0	3057	151619.875365567731	316
0	3059	151647.359715005845	317
0	3061	151950.694777453895	316
0	3070	152340.602647642935	317
0	3072	152381.19434800988	316
0	3077	152670.857815346199	317
0	3079	152757.230775015646	318
0	3081	152788.097508433667	319
0	3087	152894.391389954299	320
0	3089	152930.692889234692	321
0	3095	153057.413101764973	320
0	3100	153136.068222209117	321
0	3118	154696.155074360426	320
0	3123	154962.733733990601	321
0	3125	155209.266886573979	322
0	3127	155263.667117739673	321
0	3132	155326.602525371155	322
0	3142	155688.509138260505	323
0	3148	156225.960080324248	324
0	3158	156545.239860810256	325
0	3160	156748.92866988724	324
0	3165	157007.276715555537	325
0	3167	157265.216815891321	324
0	3172	157449.585650442852	325
0	3174	157479.784490047907	326
0	3184	158300.957981544192	325
0	3189	158340.079539185626	326
0	3199	158828.431072335733	327
0	3205	158945.484901900048	326
0	3210	159011.927923815629	327
0	3212	159217.242894954693	328
0	3214	159218.833155720754	329
0	3216	159251.759907887426	330
0	3218	159305.964184493059	331
0	3224	159781.755384768522	332
0	3230	159835.860247176765	333
0	3232	160087.078817347641	332
0	3241	160191.875562342925	333
0	3247	161117.468958246167	332
0	3252	161422.943098537645	333
0	3258	161603.017422429876	334
0	3260	161876.727960976417	333
0	3269	162358.210646333749	332
0	3274	162560.077794473014	333
0	3276	162792.467046357721	334
0	3278	162853.018363428686	335
0	3284	162887.338072257693	334
0	3289	162932.791859652263	335
0	3295	163392.214295833623	336
0	3309	163814.976314912195	335
0	3318	164464.164960423452	336
0	3320	164554.935143956407	337
0	3322	164558.726181871516	338
0	3324	164644.830916303273	339
0	3330	164677.112285163239	340
0	3332	164945.521725001129	341
0	3338	165110.574483210797	340
0	3343	165306.654327656954	341
0	3349	165787.296301359887	340
0	3354	165916.789578552707	341
0	3360	166522.038493946516	342
0	3362	166630.737975622172	341
0	3367	166632.982419987786	342
0	3369	166834.78038446754	343
0	3383	167575.701144891054	344
0	3385	167722.777924027271	345
0	3387	167769.059047895128	344
0	3392	168051.835773559863	343
0	3405	168623.63168470098	344
0	3407	168699.117313840023	345
0	3409	168703.253031812046	346
0	3411	168719.846019702358	347
0	3417	168853.440484789771	348
0	3423	169718.784691328759	347
0	3432	169788.381262286168	348
0	3434	169921.942087888192	349
0	3436	169969.486626667953	350
0	3438	170102.00024334629	351
0	3444	170434.421503926272	350
0	3453	170793.19933414038	351
0	3455	171104.904866675491	350
0	3468	172157.378707005259	351
0	3470	172622.292928333039	350
0	3475	172642.18327396058	351
0	3485	172956.511294441874	350
0	3490	173096.663435582765	351
0	3496	173643.752138850388	352
0	3506	173743.042300023106	353
0	3512	174147.659568610246	352
0	3517	174247.214370576586	353
0	3519	174250.970715622023	354
0	3521	174373.421759543473	355
0	3523	174516.214275061839	356
0	3529	174572.798579648664	357
0	3539	175668.875014791841	356
0	3544	175786.703726861732	357
0	3546	175944.436876820976	356
0	3551	176392.911731659184	357
0	3553	176427.548124725781	358
0	3555	176530.728240039507	359
0	3557	176809.422679851407	358
0	3574	177277.283667149598	357
0	3579	177327.569334624013	358
0	3585	177645.960387566154	359
0	3587	177768.104464978498	360
0	3589	177922.796391672726	361
0	3599	178313.592979657108	360
0	3608	178894.796772479616	361
0	3614	178990.441754134948	360
0	3619	179065.952380795188	361
0	3625	179174.14291343005	362
0	3631	179504.639652006137	363
0	3633	179745.877276966924	362
0	3638	179969.523349993825	363
0	3640	180345.693702253406	364
0	3642	180523.393829027767	363
0	3651	180608.165656906395	364
0	3653	180718.180029799715	365
0	3659	181211.870043958182	364
0	3664	181306.273059021905	365
0	3666	181348.806220036181	366
0	3676	181802.871708009118	367
0	3686	182347.22589775433	368
0	3688	182595.83151591068	367
0	3693	182607.793044787198	368
0	3695	182648.600472039479	369
0	3705	183175.001321576849	370
0	3711	183300.117836194689	369
0	3716	183577.172434110886	370
0	3718	183674.661960625791	371
0	3728	184143.285959594751	372
0	3730	184568.493689196761	371
0	3739	185044.962107417317	372
0	3741	185769.836635823007	371
0	3750	186749.31842983758	370
0	3763	187141.95575650268	371
0	3773	187975.019415450591	372
0	3775	187997.439831914957	371
0	3780	188180.911373824161	372
0	3786	188754.48870011663	371
0	3799	189519.187162253211	372
0	3801	189525.973530195174	373
0	3803	189550.308671305533	372
0	3816	190573.869616697188	371
0	3821	190794.387990918757	372
0	3823	190850.877828756924	371
0	3832	190959.75320958479	372
0	3834	191146.907498974182	373
0	3840	191315.829946632142	372
0	3845	191478.094977898124	373
0	3863	192299.868447306211	372
0	3868	192412.317986090676	373
0	3878	192733.125674711057	374
0	3880	193726.264281074081	375
0	3882	193935.175787890906	374
0	3891	194104.135115680728	375
0	3897	194878.278532261605	374
0	3902	194883.73660980588	375
0	3904	194976.891181844015	376
0	3910	195420.867653052993	377
0	3912	195482.674475694651	376
0	3925	196062.750868211145	375
0	3934	196193.472991205378	376
0	3936	196256.687136017378	377
0	3938	196330.735594479397	378
0	3948	196662.705060867105	379
0	3954	196826.946181079988	380
0	3956	197147.839674538341	381
0	3958	197191.43738999956	382
0	3960	197258.909308994765	381
0	3969	197704.059497332238	382
0	3971	197955.051377540187	383
0	3977	198253.714122893865	382
0	3982	198415.465162307265	383
0	3984	198666.609529229457	382
0	3993	198902.868905877333	383
0	3995	198928.265968779503	384
0	4001	199306.43999382709	385
0	4003	199557.899687347545	386
0	4009	199768.200510323215	387
0	4011	199859.548189024345	388
0	4013	199934.548697481508	387
0	4022	200314.955530282432	388
0	4024	200345.088118271188	389
0	4034	200667.035816017033	390
0	4040	201098.776599662955	389
0	4045	201271.827504509057	390
0	4047	201604.939300065191	391
0	4049	201642.242405222687	392
0	4051	201731.956667775494	393
0	4053	201812.698958392609	394
0	4055	202147.388773086126	393
0	4068	202719.901846808252	394
0	4070	202816.331295831374	395
0	4076	202985.653479234045	396
0	4078	203071.210966782189	397
0	4080	203168.469882133062	396
0	4085	203243.434677882392	397
0	4087	203287.241958306712	398
0	4093	203811.238522331714	399
0	4095	204419.095467527493	400
0	4101	204590.697416561301	399
0	4106	204656.634079073543	400
0	4112	204943.859898886879	401
0	4114	205211.423858463663	402
0	4116	205339.053377357358	403
0	4122	206083.599476204802	404
0	4124	206198.279462615605	403
0	4129	206458.183368064878	404
0	4135	206755.875830883737	403
0	4144	207284.524995207697	404
0	4158	207814.106291290538	405
0	4160	208207.46711477919	406
0	4162	208266.735894215097	407
0	4164	208368.460402610357	406
0	4169	208575.247142630644	407
0	4171	208744.571384313162	406
0	4176	209016.20663772064	407
0	4178	209252.937972045242	408
0	4180	209638.00855226492	409
0	4186	210013.2715955103	408
0	4191	210080.417672735122	409
0	4193	210089.509725993971	410
0	4199	210528.483052221781	411
0	4201	210707.855501595528	412
0	4211	211173.968600193616	411
0	4216	211201.701657679388	412
0	4218	211233.669667695806	413
0	4220	211330.745346496143	414
0	4222	211553.868796666507	415
0	4224	211587.448620135542	414
0	4249	213085.696242461559	413
0	4254	213165.515083288439	414
0	4256	213317.355526174448	415
0	4258	213447.972956811889	416
0	4264	213833.224969246468	417
0	4266	214554.162241304871	416
0	4275	214806.65209995343	417
0	4277	215152.250187591259	418
0	4283	215352.981496011244	419
0	4285	215615.542248234023	420
0	4291	216208.227154994961	419
0	4304	217510.883410634407	420
0	4310	217725.054368439868	421
0	4312	217792.429292658922	420
0	4317	217874.626789283344	421
0	4319	217906.527982930361	422
0	4321	218032.698030654743	423
0	4323	218062.303399799722	424
0	4325	218517.052829015351	425
0	4331	218694.837747598645	424
0	4336	218735.496939197139	425
0	4342	219376.11793207194	426
0	4344	219437.816048516622	427
0	4346	219590.176316658613	426
0	4355	219866.186781747946	427
0	4357	220205.145054283199	426
0	4362	220433.467660142583	427
0	4372	220883.35942021853	428
0	4374	221115.210794861783	429
0	4380	221331.883967170393	430
0	4382	221353.954489166496	429
0	4387	221598.176017830088	430
0	4393	221905.905002542157	431
0	4395	222360.763293142078	430
0	4408	223125.650458179894	431
0	4410	223276.870434696056	432
0	4412	223370.755357559243	433
0	4414	223397.976609304846	434
0	4420	223567.12957904732	433
0	4425	223644.180542326797	434
0	4427	223788.874317117553	435
0	4429	223893.894927322903	436
0	4435	224227.150572039899	437
0	4437	224262.96115791025	438
0	4443	224434.472754123268	437
0	4448	224687.562278444526	436
0	4461	226025.086544776234	437
0	4467	226089.996319013295	436
0	4472	226270.984823211357	437
0	4478	226434.045590383656	438
0	4480	226461.102621773351	439
0	4482	226606.245427065115	440
0	4484	226951.185222532267	441
0	4498	227606.927753696797	440
0	4503	227616.825245589488	441
0	4505	227649.922385546404	442
0	4507	227669.486962754523	443
0	4509	227824.842992062353	444
0	4523	229059.139896156845	443
0	4528	229297.714880927572	444
0	4530	229303.033695528862	443
0	4535	229547.832168797609	442
0	4540	229558.200524787569	443
0	4546	230347.497299509701	442
0	4555	230474.704295092763	443
0	4561	230648.687062973519	444
0	4563	230807.27567524707	443
0	4572	231043.826742362429	444
0	4578	231408.394582206961	443
0	4583	231483.740376692202	444
0	4609	232711.318502026257	443