version 2
run Iteration-24-20200521-09:52:13-56864
attr configname Iteration
attr datetime 20200521-09:52:13
attr experiment Iteration
attr inifile omnetpp.ini
attr iterationvars "$i=2, $j=12, $0=15-(2+12)"
attr iterationvarsf i=2,j=12,15-(2+12)-
attr measurement "$i=2, $j=12, $0=15-(2+12)"
attr network Network
attr processid 56864
attr repetition 0
attr replication #0
attr resultdir results
attr runnumber 24
attr seedset 24
itervar i 2
itervar j 12
param **.resourcePool.amount 2
param **.resourcePool1.amount 12
param **.resourcePool2.amount 15-(2+12)
param **.source.interArrivalTime exponential(6min)
param **.delay.delay uniform(4min,28min)
param **.delay1.delay uniform(10min,28min)
param **.delay2.delay uniform(4min,16min)
param **.allocate.resourceModuleName "\"Network.resourcePool\""
param **.allocate1.resourceModuleName "\"Network.resourcePool1\""
param **.allocate2.resourceModuleName "\"Network.resourcePool2\""
param **.deallocate.resourceModuleName "\"Network.resourcePool\""
param **.deallocate1.resourceModuleName "\"Network.resourcePool1\""
param **.deallocate2.resourceModuleName "\"Network.resourcePool2\""
param **.router.randomGateIndex "uniform(0, 1) > 0.2 ? 0 : 1"

vector 0 Network.allocate queueLength:vector ETV
attr interpolationmode sample-hold
attr title "queue length, vector"
vector 1 Network.allocate1 queueLength:vector ETV
attr interpolationmode sample-hold
attr title "queue length, vector"
vector 2 Network.allocate2 queueLength:vector ETV
attr interpolationmode sample-hold
attr title "queue length, vector"
vector 3 Network.sinkStat lifeTime:vector ETV
attr interpolationmode none
attr title "lifetime of arrived jobs, vector"
attr unit s
vector 4 Network.sink lifeTime:vector ETV
attr interpolationmode none
attr title "lifetime of arrived jobs, vector"
attr unit s
0	0	0	0
0	8	1304.051695137701	1
0	10	1441.562876093167	2
0	12	1531.040024942603	3
0	14	2406.248396469865	2
0	19	2964.311634400316	1
0	24	3018.560305633266	2
0	26	3166.169549769376	1
0	35	4088.803272864435	0
0	84	5770.00857486257	1
0	86	5869.040536850151	0
0	91	5872.277468427831	1
0	93	6110.879217493213	2
0	100	6407.84972440863	3
0	102	6504.722246348318	2
0	112	6798.964187667543	1
0	120	7479.622311496014	0
0	125	7531.601992281136	1
0	135	7942.0671522873	2
0	140	8031.28679112291	1
0	145	8094.303940099812	2
0	152	8628.506790564234	1
0	165	9121.989344544121	2
0	167	9163.513956052854	3
0	169	9403.127803428999	4
0	171	9478.214985607442	5
0	173	9558.023488789257	4
0	189	10070.847703605677	5
0	191	10097.150021301661	6
0	193	10241.446179651494	5
0	198	10318.820566057619	4
0	203	10607.624037979747	5
0	205	10755.0315157183	6
0	215	11103.074613481093	7
0	217	11116.060396439787	6
0	222	11250.829074808235	5
0	232	11370.839438369288	6
0	237	11426.409106021694	7
0	239	11689.70436424708	6
0	247	11841.523111518228	7
0	254	12035.662609699395	8
0	259	12070.023584269757	7
0	264	12106.53418597525	6
0	269	12377.308935806019	7
0	282	12857.785320636991	8
0	287	12935.867184332963	7
0	297	13539.564383802502	8
0	307	13665.667190083141	7
0	315	14422.692369350071	6
0	320	14495.863849453088	5
0	330	14818.271009456298	6
0	338	15175.712905502171	7
0	345	15364.360103837606	6
0	350	15369.793250688191	5
0	355	15471.995687906227	6
0	357	15695.951984825947	7
0	362	15739.56501989001	8
0	374	16184.888959402668	9
0	376	16231.112003267582	8
0	381	16307.548923274631	9
0	383	16390.005273825881	8
0	391	16620.058536284443	7
0	396	16644.385254393506	8
0	401	17002.996276251432	7
0	406	17027.799772235167	8
0	413	17181.658536876603	9
0	421	17647.892657823321	8
0	429	17719.58221422213	7
0	442	17972.126008374399	8
0	444	18263.599694887207	9
0	449	18837.414263201547	10
0	456	18962.67921999788	9
0	469	19219.760866776881	8
0	474	19629.844708946279	9
0	476	19662.961238667858	10
0	481	19982.209817335782	9
0	494	20332.608307457921	8
0	499	20646.756898719524	9
0	501	20717.329944089828	8
0	511	20810.946577161011	7
0	516	21006.263424655255	8
0	526	21362.620183915673	7
0	534	21405.35382889673	8
0	547	21614.730100990347	9
0	549	21676.345070628497	10
0	551	21680.962226141344	11
0	553	21733.362368356993	12
0	555	22144.305319000149	13
0	562	22282.232060932396	12
0	567	22337.399981922862	11
0	572	22460.715307695716	12
0	574	22545.479577826136	13
0	589	23016.408498451965	14
0	591	23248.092057529679	15
0	596	23296.824352582769	16
0	598	23363.600876449999	15
0	603	23391.963006310938	14
0	608	23560.388749559698	15
0	610	23724.865762523767	14
0	623	24208.804068134008	13
0	633	24595.946297801491	12
0	649	24807.121358156977	11
0	654	24869.057758718189	10
0	662	25091.555731093132	11
0	667	25250.389724645356	12
0	672	25611.974322997806	11
0	677	25613.496336499444	12
0	687	25827.775168952289	13
0	689	26011.0085019626	12
0	694	26042.591575018522	11
0	702	26334.73855608779	10
0	715	26811.600021598917	11
0	717	26871.679703296353	12
0	719	26991.389959060429	11
0	732	27336.505433859096	12
0	734	27458.500904261526	11
0	750	27784.38115777423	12
0	755	27992.100311905919	11
0	765	28780.019928307115	10
0	773	28991.843977614697	9
0	778	29093.800104462384	8
0	794	29903.081862527981	9
0	796	29963.142030180274	8
0	812	30523.262153369847	9
0	814	30545.608265891131	8
0	819	30671.201292472658	9
0	829	31141.582222000538	8
0	834	31575.313777297195	7
0	839	31581.942989281014	8
0	841	31611.650835291325	7
0	846	31654.024161394202	8
0	856	32221.973617083784	7
0	861	32263.84473344016	6
0	874	32489.746398052686	7
0	876	32623.10405904186	8
0	878	32684.77611925302	9
0	880	32710.161275054638	10
0	885	33004.557824196659	11
0	890	33011.272475325345	10
0	903	33356.92325565039	11
0	905	33462.437437146362	10
0	916	33900.95980433452	9
0	921	34014.977210171629	10
0	931	34570.426336049494	9
0	941	34899.372707351503	8
0	946	34959.461561379288	9
0	956	35390.606416852056	8
0	961	35443.547573181108	9
0	963	35532.648561804203	10
0	965	35549.561393121206	11
0	967	35579.118337682506	12
0	969	35880.282639756954	13
0	976	35992.70164218491	12
0	981	36067.698136004856	13
0	991	36248.288670091455	14
0	993	36298.575393786167	15
0	998	36484.095773322752	16
0	1000	36668.821496979176	15
0	1005	36737.186880416629	14
0	1032	38050.651713181579	15
0	1039	38247.900752887904	14
0	1044	38333.865151710269	13
0	1049	38461.052016762509	14
0	1051	38570.019743867993	13
0	1056	38598.75137862674	14
0	1063	39171.869736851036	13
0	1068	39202.187392163222	14
0	1070	39297.816901213882	13
0	1075	39361.451254678824	14
0	1091	39982.429745757515	15
0	1096	40077.290623306689	14
0	1109	40530.54861838797	15
0	1111	40530.563544609427	14
0	1116	40588.919889092857	15
0	1118	40610.197985793384	16
0	1125	40754.339851807036	17
0	1130	41134.546451675332	18
0	1137	41318.298463149776	19
0	1139	41329.650670003246	20
0	1141	41366.796701473712	21
0	1143	41639.554350830076	20
0	1148	41717.15678369461	21
0	1158	42057.666158496795	20
0	1163	42073.783276356836	21
0	1165	42142.500829898595	20
0	1170	42294.580440729677	21
0	1175	42329.592942811697	22
0	1177	42334.320038179237	23
0	1179	42529.759245940327	22
0	1184	42710.698943331299	21
0	1189	42799.122889649482	22
0	1196	42942.03595876795	23
0	1198	42954.711260265263	24
0	1200	42989.933448387564	25
0	1202	42996.547706312333	26
0	1204	43059.242847307978	25
0	1209	43398.031009559369	26
0	1214	43494.94514485526	25
0	1222	43567.306231274299	26
0	1224	43600.656398480017	27
0	1237	43756.753372184394	26
0	1242	44208.221725015598	27
0	1249	44338.352193767121	28
0	1251	44460.329343409033	29
0	1256	44635.197221139878	30
0	1261	44801.034818645842	31
0	1263	44875.64501242417	30
0	1268	44939.241885876684	31
0	1275	45139.738732405781	30
0	1283	45291.053845963834	29
0	1288	45629.444261912668	30
0	1295	45799.720630198716	31
0	1297	45810.39267824789	32
0	1299	45824.591296703398	31
0	1307	45934.843587146724	32
0	1312	46144.837720894098	31
0	1320	46393.561298315543	32
0	1327	46762.179367595196	31
0	1335	46815.128941541939	32
0	1337	46900.728095851301	31
0	1345	47050.892088144129	32
0	1352	47790.091309064911	33
0	1359	48002.515162236451	32
0	1364	48026.782063633979	31
0	1369	48122.579050220366	32
0	1376	48253.19135746934	33
0	1387	48623.565503262759	32
0	1392	48769.695884555041	31
0	1397	48834.270567647454	32
0	1404	49011.50916681385	31
0	1420	49641.376656859576	30
0	1436	50096.382024341107	29
0	1441	50190.292376564374	30
0	1443	50217.12829400471	31
0	1445	50410.575500476413	32
0	1463	51320.154578059375	31
0	1468	51436.332115956426	30
0	1473	51724.839404727342	31
0	1480	51846.078902748435	32
0	1482	52159.303267166794	31
0	1487	52208.779552809357	30
0	1500	52572.863981702209	29
0	1513	52879.776437885522	28
0	1518	53057.496662546315	29
0	1520	53250.968156145183	30
0	1527	53355.515947469354	29
0	1538	53662.548423699679	30
0	1540	53684.08517212367	29
0	1553	54123.716466769039	28
0	1572	54969.203844868422	27
0	1577	54974.99258590378	28
0	1579	54997.190079433584	29
0	1581	55278.841309293568	28
0	1597	56262.59493940116	29
0	1599	56286.767948816735	30
0	1609	56540.83333497572	29
0	1614	56558.238825506926	28
0	1619	57008.807411917329	27
0	1632	57209.331805311542	28
0	1642	58230.566141314269	27
0	1655	58488.908464998782	26
0	1660	58916.266932093382	25
0	1665	59099.401574104489	24
0	1670	59121.099784091951	25
0	1680	59366.134853445058	26
0	1682	59458.482743546098	27
0	1684	59477.035645505458	28
0	1689	59601.629220251961	29
0	1691	59620.702527889075	30
0	1701	59815.939993618355	31
0	1703	59841.794661283976	32
0	1705	59845.774688547745	33
0	1715	60094.212056861103	32
0	1720	60103.762338031247	33
0	1722	60118.814913806967	34
0	1724	60135.868244684708	35
0	1726	60135.946987445934	36
0	1728	60212.640848827283	37
0	1735	60683.11072711593	36
0	1740	60942.461415299295	37
0	1750	61609.078403731036	38
0	1752	61676.422302769069	39
0	1754	61742.922951110483	38
0	1764	61831.772405139566	37
0	1769	62006.287831083716	36
0	1782	62317.451041720272	35
0	1792	62518.923634909294	36
0	1794	62595.285074058163	37
0	1796	62663.964502820343	38
0	1804	62820.769314955774	39
0	1811	62909.420182863527	40
0	1816	63094.974131384826	41
0	1818	63113.110247996909	42
0	1828	63230.162140771211	41
0	1833	63532.005729877235	40
0	1838	63798.133827098857	41
0	1853	64625.554442905666	40
0	1858	64661.46136541611	39
0	1866	64949.033405377925	38
0	1871	65000.562536471368	37
0	1884	65454.202964545072	36
0	1897	65525.440237147511	37
0	1902	66040.511916733742	36
0	1915	66410.777308202744	35
0	1923	67108.968553707779	34
0	1933	67152.042544125526	35
0	1938	67282.998804903985	34
0	1943	67320.959026526621	35
0	1945	67510.060658390068	36
0	1947	67553.016854075043	37
0	1949	67555.606646571602	38
0	1951	67567.791495247121	39
0	1956	67797.123306893588	38
0	1961	67853.3045176039	39
0	1963	68003.007951918011	40
0	1976	68436.887971045886	41
0	1978	68514.716885453505	42
0	1988	68832.749294124008	41
0	1993	68861.104137316787	42
0	1995	68939.980395600976	41
0	2005	69251.965931450497	42
0	2012	69428.838485767485	43
0	2014	69434.412160744451	44
0	2016	69547.565814485507	45
0	2021	69763.683132806166	46
0	2028	70158.118928723814	45
0	2033	70500.893079347373	44
0	2046	70768.632457314414	45
0	2064	71639.162509382548	44
0	2069	71661.435470231932	45
0	2071	72082.94775564915	44
0	2076	72199.130696999952	45
0	2083	72767.943488561394	44
0	2093	72929.821105830299	45
0	2106	73346.784263427665	46
0	2113	73515.402417264343	45
0	2123	73838.185219313623	46
0	2128	73955.622014626477	47
0	2130	74004.668565743449	46
0	2140	74389.811649396126	47
0	2145	74825.946208916069	46
0	2155	75352.264011853221	45
0	2160	75425.256042005795	46
0	2167	75654.964500705243	47
0	2172	75708.716137496567	48
0	2182	76038.010786517919	47
0	2187	76207.714851356585	48
0	2189	76321.204743375724	49
0	2191	76345.153523346525	50
0	2198	76472.208940584206	51
0	2200	76532.834712124825	50
0	2205	76573.422839731756	49
0	2216	76816.637748127089	50
0	2218	76824.170635321024	49
0	2228	77276.209295693728	50
0	2230	77403.577523321691	49
0	2241	77786.351255930424	48
0	2251	78005.515053321646	49
0	2253	78096.464015900551	50
0	2258	78518.398002318502	49
0	2263	78595.193397660144	50
0	2265	78670.632262320104	49
0	2273	78821.327720691124	50
0	2280	78981.633577975142	51
0	2282	79001.187377429963	50
0	2290	79245.230979304414	51
0	2292	79252.811619200929	52
0	2294	79472.066886388514	53
0	2304	79987.989838838042	52
0	2309	80058.040933773699	51
0	2325	80479.205767705916	52
0	2327	80668.971862203838	51
0	2332	80696.057135403934	50
0	2348	81093.405814821488	51
0	2350	81106.249310902716	50
0	2365	81814.69219562872	51
0	2367	81839.759580728856	52
0	2375	82097.387980203793	53
0	2377	82215.20636064637	52
0	2385	82281.011146760942	51
0	2395	82587.888402871253	50
0	2400	82674.79675242263	51
0	2410	82922.415738423041	52
0	2412	82981.606989710544	53
0	2414	83101.090730719069	54
0	2421	83405.610666243781	55
0	2423	83501.925820314172	54
0	2431	83711.511155051476	55
0	2433	83786.409407126542	56
0	2435	83890.868790901663	55
0	2448	84285.461534515116	56
0	2450	84320.754668682279	55
0	2455	84589.069888085252	56
0	2462	84698.167977603881	57
0	2464	84725.318602801846	58
0	2472	84858.583209062632	59
0	2479	85028.616896622661	58
0	2484	85223.967793367269	57
0	2489	85224.53693654167	58
0	2491	85622.540655404307	59
0	2493	85626.339879266226	60
0	2506	86020.731929630819	59
0	2511	86151.195459894302	58
0	2519	86457.374045827273	57
0	2529	86507.070823500576	58
0	2531	86552.409638460106	59
0	2533	86689.786579876604	58
0	2541	87057.588473343587	59
0	2546	87332.962811195139	58
0	2559	87813.302748770777	59
0	2564	88253.278853006127	58
0	2574	88445.814755872671	57
0	2579	88535.548956943982	58
0	2586	88808.079447222026	59
0	2588	88823.040083528279	60
0	2590	88848.97918003589	61
0	2592	88956.827654385815	62
0	2600	89019.171530087753	63
0	2602	89340.803740897064	62
0	2607	89481.750513210359	61
0	2617	89824.574015728112	62
0	2622	89865.388707557882	63
0	2629	90252.092666008358	62
0	2639	90536.160165408782	63
0	2641	90613.714370585444	62
0	2646	90628.879479616494	63
0	2648	90648.845054912088	64
0	2658	90845.049840335985	65
0	2663	91042.249955940035	66
0	2670	91284.7221089525	67
0	2672	91349.7456442872	68
0	2674	91468.759636103573	67
0	2679	91515.653965181817	68
0	2681	91581.924270867323	69
0	2691	91927.394919075852	68
0	2709	92859.822223127669	67
0	2720	93109.591787129107	66
0	2725	93126.635218911654	65
0	2735	93467.818759442986	66
0	2737	93553.642988887116	67
0	2747	93924.715019480849	68
0	2749	93990.095536808072	69
0	2759	94218.661933183623	70
0	2761	94303.277480935494	71
0	2766	94434.93887775338	70
0	2771	94479.880960574803	71
0	2773	94501.221854031867	70
0	2778	94841.639133788914	71
0	2780	94896.608589358569	72
0	2787	95143.70565050042	71
0	2792	95417.106250428444	70
0	2808	95767.723664769505	71
0	2810	95840.685556370981	72
0	2820	96277.739716937268	73
0	2822	96296.0230893426	72
0	2827	96347.505129945443	73
0	2829	96418.68818816207	74
0	2836	96695.890234678451	73
0	2841	96787.356602767256	74
0	2859	97640.932587438113	73
0	2864	97894.153253666524	72
0	2877	98260.352020414796	73
0	2879	98342.760806658155	72
0	2895	98814.130696812487	73
0	2897	99149.458636424903	72
0	2902	99165.169702421579	73
0	2904	99168.901799272921	74
0	2911	99295.885742024368	73
0	2916	99428.77517969108	72
0	2921	99601.389594801551	71
0	2926	99871.830455927523	72
0	2931	100004.594366565984	73
0	2933	100008.039905928856	72
0	2943	100304.803422450991	73
0	2945	100422.217999620125	74
0	2947	100432.341021976832	73
0	2961	100608.413652894723	74
0	2974	101290.531053856796	73
0	2979	101413.175961466788	74
0	2989	101655.981009534959	73
0	2999	102016.679074041538	74
0	3001	102069.845343090061	73
0	3006	102350.946723238415	72
0	3011	102388.598775647048	71
0	3021	102544.105671228566	72
0	3023	102710.885024699	73
0	3025	102716.29780475742	72
0	3030	102834.02536089425	73
0	3038	103080.86317886346	74
0	3040	103129.719213619791	75
0	3042	103178.069610304598	74
0	3047	103193.067761872024	75
0	3049	103352.666789979524	74
0	3059	103430.091023030325	75
0	3064	103657.571483852897	76
0	3072	103897.969704947833	75
0	3085	104097.332281038947	74
0	3093	104500.610355816249	73
0	3103	104655.553956718035	72
0	3108	104672.690384479542	73
0	3113	104816.657357003929	74
0	3115	104846.82354186422	73
0	3128	105374.664167619709	72
0	3136	105521.621357851513	71
0	3152	105712.384068930802	72
0	3157	105980.085912176259	71
0	3162	106020.681822959893	72
0	3164	106046.508025695138	73
0	3174	106544.698151297761	74
0	3179	106838.914383656744	73
0	3189	106863.940323639779	74
0	3194	106913.026614999368	75
0	3196	107173.632095956095	74
0	3201	107446.736596020898	75
0	3206	107553.983812282392	76
0	3208	107578.48414065773	77
0	3210	107733.856053219184	78
0	3217	108047.11150741622	79
0	3219	108062.939156896834	78
0	3224	108151.474271351301	79
0	3234	108714.940397680589	78
0	3244	108904.240678816502	77
0	3252	109156.93982664867	78
0	3262	109722.765926846155	77
0	3272	109992.077367316514	78
0	3277	110389.599676958685	77
0	3295	110795.514366456159	76
0	3300	111097.054831289538	75
0	3305	111191.447803828357	76
0	3307	111296.386634613485	77
0	3314	111414.406771629517	76
0	3319	111560.735049728815	77
0	3326	111884.800952647553	78
0	3340	112185.293477032895	79
0	3347	112286.069418580123	78
0	3352	112459.10356002499	79
0	3354	112662.542493767682	80
0	3361	112818.046527176564	79
0	3366	113130.394463919158	80
0	3371	113241.755439095982	79
0	3381	113341.79378070754	80
0	3383	113564.231437795647	79
0	3396	113804.476877799273	80
0	3398	113870.291024188168	81
0	3400	113986.586035442163	82
0	3402	114099.444986411222	81
0	3412	114413.113512701755	80
0	3417	114459.513180408718	81
0	3430	114880.048032874772	82
0	3432	114913.843140208014	81
0	3437	114944.216197264235	82
0	3442	115231.747483626791	81
0	3452	115687.756689384049	80
0	3468	116148.562150830246	81
0	3475	116272.805464037113	82
0	3480	116355.682914641671	83
0	3485	116758.05790921379	82
0	3490	116812.397064722544	81
0	3505	117189.472673145814	82
0	3507	117485.368090699394	83
0	3517	117893.985248512989	82
0	3522	118113.044089057335	81
0	3535	118583.135444463083	80
0	3540	118726.261096193856	79
0	3545	118806.658921668193	80
0	3547	118882.716878609918	81
0	3554	119060.322422022185	82
0	3564	119268.865916929184	83
0	3566	119294.447315478451	84
0	3568	119498.32075369305	83
0	3573	119507.156046233877	84
0	3581	119749.831503159925	85
0	3588	119911.14857240598	86
0	3590	119990.476722492239	87
0	3592	120108.48610625363	86
0	3597	120110.223714352438	85
0	3613	120908.180612854129	84
0	3618	120910.09791554584	85
0	3620	120994.334160005083	86
0	3627	121294.273428565435	87
0	3632	121400.980515160451	86
0	3637	121502.704648548436	87
0	3639	121514.779077908798	88
0	3641	121541.95233993207	89
0	3651	121859.574510992933	90
0	3653	121879.741325757962	91
0	3655	121891.614022046417	92
0	3657	122194.28002089954	91
0	3667	122275.933107305896	92
0	3669	122292.814906745199	93
0	3677	122515.310259439836	92
0	3690	122916.906046193656	93
0	3692	123217.517391551266	94
0	3702	123626.214406394253	93
0	3707	123648.800530440575	92
0	3712	123837.429953210641	93
0	3714	123857.290964592058	94
0	3716	123883.445398113314	95
0	3723	124390.70040895971	96
0	3725	124623.882600448495	95
0	3730	124722.11187755395	94
0	3743	125051.579777087489	95
0	3748	125301.364096009479	96
0	3755	125516.717387742764	95
0	3763	125668.331299220256	96
0	3770	125754.616644234562	97
0	3775	125944.083626993786	96
0	3780	126084.402601241535	95
0	3790	126412.154606112133	94
0	3795	126498.207658312684	93
0	3805	127093.11880172008	94
0	3813	127241.093999228841	93
0	3829	127588.481040538143	92
0	3845	128002.336694084971	93
0	3847	128298.804760256947	94
0	3849	128325.374077946733	93
0	3854	128392.085207633144	92
0	3867	128658.949218638936	93
0	3874	129032.033442638284	92
0	3879	129037.689937105216	93
0	3884	129211.019793571742	94
0	3886	129284.371124558936	93
0	3891	129343.10017872214	94
0	3899	129742.791468767038	95
0	3906	130215.730589234124	94
0	3911	130479.174527644581	93
0	3921	130739.929714107339	94
0	3926	130991.705163676949	95
0	3928	131011.067782246362	94
0	3938	131402.093212993377	95
0	3940	131833.339963908334	96
0	3945	132016.507712505609	97
0	3947	132081.338660016126	96
0	3963	132416.273518704664	95
0	3968	132685.940742365742	96
0	3970	132703.544424971707	97
0	3972	132898.351766027682	98
0	3974	132940.205339581057	99
0	3981	133085.104642760902	100
0	3989	133466.116322136886	99
0	3994	133524.895908289975	100
0	3996	133525.492269449722	99
0	4001	133536.099236843167	100
0	4003	133713.534610321133	101
0	4015	134327.39726965953	100
0	4023	134607.208163584817	101
0	4030	134915.657298236556	100
0	4041	135236.379512695357	101
0	4048	135422.514726936288	100
0	4053	135688.895925297817	101
0	4060	135846.771323232921	102
0	4062	135847.495365903567	101
0	4067	135965.962073824223	102
0	4074	136096.078127029846	103
0	4076	136270.510153747833	104
0	4081	136294.966111748882	103
0	4091	136669.826690811488	104
0	4093	136771.274141101884	105
0	4095	136810.127947606366	106
0	4103	137103.239152707945	105
0	4108	137143.721776779327	106
0	4115	137339.477112821706	105
0	4120	137539.542515012868	106
0	4122	137669.935041479792	107
0	4124	137715.221498363506	106
0	4129	137844.787395417162	105
0	4148	138236.552012687328	106
0	4153	138509.382994759755	107
0	4160	138822.984581523796	108
0	4162	139142.794253460535	107
0	4167	139175.84888720591	106
0	4172	139198.465975652333	107
0	4182	139820.164864201817	108
0	4184	139961.904407414081	109
0	4186	140031.158336230409	108
0	4202	140472.06832405872	107
0	4207	140551.493767418663	108
0	4214	140861.529813428232	109
0	4216	140881.537230769732	110
0	4226	141619.512003713143	109
0	4231	141690.38410881176	110
0	4236	141957.282205640742	109
0	4246	141977.851163596745	110
0	4248	142278.827920227708	111
0	4255	142357.371684887171	112
0	4257	142361.721126478736	113
0	4262	142606.321018763673	112
0	4267	142852.456477663883	111
0	4277	143124.935061975786	110
0	4282	143358.736862037951	111
0	4287	143388.781688144505	112
0	4289	143496.762401654789	111
0	4294	143521.635655627441	110
0	4307	143688.086754231568	111
0	4309	143742.263505734656	112
0	4314	143952.264719211351	111
0	4319	144082.34644532554	112
0	4332	144592.997532194281	113
0	4339	144885.029828927884	112
0	4347	145285.031193249714	111
0	4360	145901.03952787193	112
0	4365	145904.964763007531	111
0	4375	146420.504886060516	112
0	4380	146582.54497688956	111
0	4385	146644.600637980592	110
0	4390	146733.74495894701	111
0	4400	147369.162910616022	112
0	4413	148022.017708129654	111
0	4418	148184.739571676445	110
0	4428	148885.467874414692	109
0	4449	149452.835553937447	108
0	4454	149775.072032145629	107
0	4462	150222.421834589094	108
0	4469	150357.384795218179	107
0	4474	150422.397311478403	108
0	4481	150729.580224943554	109
0	4483	150876.583713672528	108
0	4488	150876.980711363948	109
0	4493	150921.585069649708	108
0	4498	151024.792614739322	109
0	4500	151032.117439632906	110
0	4508	151225.443555384347	109
0	4513	151287.606791086902	110
0	4520	151416.559679668247	111
0	4522	151805.788918704526	112
0	4524	151821.480013184711	113
0	4529	152157.426864375352	114
0	4539	152198.488184220562	113
0	4544	152326.707776316297	112
0	4557	152810.847893153275	113
0	4559	152858.08428110261	112
0	4564	152966.431299600448	113
0	4574	153806.532029674244	112
0	4579	153818.470195978613	113
0	4581	153858.747782006333	112
0	4589	154101.114357745423	113
0	4596	154159.109557165842	114
0	4606	154611.436271981192	113
0	4622	154905.907274932614	114
0	4624	154906.949156962761	115
0	4626	155192.702666168539	116
0	4628	155287.837161474717	115
0	4633	155496.152806512485	114
0	4646	155942.037184070677	115
0	4651	156010.136228254632	116
0	4656	156137.393623616244	117
0	4663	156298.994574868858	118
0	4665	156341.423727807425	119
0	4667	156415.625249632106	120
0	4669	156466.271615830276	121
0	4671	156612.58124495258	122
0	4673	156741.861569962869	121
0	4678	156758.354266674114	120
0	4688	157238.204854232064	121
0	4690	157431.821577229393	120
0	4698	157694.548710517031	121
0	4705	157831.971257151323	122
0	4710	157977.472577213715	121
0	4715	158277.403802182612	122
0	4717	158562.268713822056	123
0	4724	158997.264860027326	122
0	4732	159127.381420185402	123
0	4737	159352.751116955716	124
0	4739	159355.845976795252	125
0	4741	159413.461536128619	126
0	4743	159521.359708576869	125
0	4753	159636.421339788331	124
0	4758	159692.044451908041	125
0	4760	159786.240370046981	126
0	4770	160497.794669286205	125
0	4775	160499.45234160444	126
0	4782	160628.015214323472	125
0	4790	161021.627593929481	126
0	4795	161087.360303468102	127
0	4802	161596.492612066683	128
0	4809	161991.428056232656	129
0	4817	162139.13734235562	128
0	4822	162143.852594957544	127
0	4827	162191.86565395554	128
0	4829	162276.581602811861	129
0	4831	162441.037041723022	130
0	4843	162917.84135646868	131
0	4848	163003.940292724265	130
0	4853	163003.969330634282	131
0	4855	163076.870628490519	130
0	4860	163550.585534074745	131
0	4870	163907.697802006673	130
0	4875	164033.969392822669	131
0	4888	164404.418169424726	130
0	4893	164414.661565106486	131
0	4895	164751.42625659081	132
0	4902	164775.956346184804	131
0	4907	165060.748904032518	132
0	4912	165267.059013745647	133
0	4914	165291.235234818827	132
0	4927	165694.977263488664	131
0	4943	166576.016834468438	130
0	4948	166593.033698009749	131
0	4950	166713.475200978131	132
0	4952	166740.832739144038	131
0	4957	166809.529887213179	132
0	4967	167389.307847514318	133
0	4969	167416.923937887742	132
0	4974	167492.641325792504	133
0	4984	168021.947984617726	134
0	4989	168102.963709123293	135
0	4991	168113.685243993472	134
0	4996	168207.837620057954	133
0	5009	168972.480926706861	132
0	5022	169365.096894993852	131
0	5030	169400.044296585812	130
0	5035	169569.32865156149	131
0	5037	169708.87932766634	132
0	5039	169780.883363351503	133
0	5044	169869.618935744982	134
0	5046	169934.429599724184	133
0	5059	170265.844978957842	132
0	5064	170682.781890227864	131
0	5069	170727.66507668127	130
0	5074	170743.977983166002	131
0	5087	170993.111090005233	130
0	5092	171241.201441958491	131
0	5097	171391.39627709256	132
0	5107	171593.593340526537	133
0	5112	171803.024823681309	132
0	5117	171881.616940915058	131
0	5122	171992.57676641453	132
0	5129	172137.203130418053	133
0	5136	172376.489883007075	134
0	5152	173145.398967058256	133
0	5157	173187.062345750103	132
0	5167	173488.494644239802	133
0	5169	173507.092790086714	134
0	5171	173530.34256882232	135
0	5181	173928.170747659126	136
0	5183	174138.589575570289	137
0	5188	174343.748611106942	136
0	5193	174443.620591267614	137
0	5195	174546.677523718074	136
0	5200	174763.423122589548	137
0	5210	175221.006472036782	138
0	5212	175619.242300066945	139
0	5214	175636.267240689774	140
0	5221	175663.312487594022	141
0	5223	175774.227731234799	140
0	5236	176095.889307685986	139
0	5246	176350.504454624518	140
0	5248	176542.443004033933	139
0	5253	176624.157061816051	138
0	5258	176875.294118570963	139
0	5260	177106.200060757284	140
0	5281	177769.63191789336	139
0	5286	177803.115632437959	138
0	5299	178511.930187500487	137
0	5304	178686.865372330452	138
0	5309	178723.100755783733	139
0	5311	178749.510713976152	140
0	5326	179477.685447313681	139
0	5331	179492.992312915097	138
0	5336	179561.251036196584	139
0	5341	179630.981824676775	140
0	5343	179748.447210724126	141
0	5345	179851.568840003978	140
0	5355	180050.507865789931	141
0	5357	180104.626905750318	142
0	5359	180202.142166385866	143
0	5366	180675.253525619363	144
0	5368	180753.310020349394	143
0	5376	180981.697599829033	142
0	5389	181291.942302742516	143
0	5399	181557.697146428637	144
0	5401	181604.39559998058	145
0	5408	182179.55096726067	144
0	5421	182267.693551719979	143
0	5429	182505.687429855737	144
0	5444	183507.401237311026	145
0	5446	183523.782336782982	146
0	5451	183837.379597879421	145
0	5456	183859.686105347322	146
0	5458	183946.713637166516	145
0	5468	184674.238807462947	144
0	5473	184675.876462632025	145
0	5480	184840.176703386561	146
0	5485	185156.437148421478	145
0	5490	185160.444126988509	146
0	5492	185164.566678549512	147
0	5494	185280.546168477134	146
0	5499	185425.271248142227	147
0	5509	185660.337714932334	146
0	5514	185868.096891219566	147
0	5524	186389.293595969152	146
0	5529	186421.749773898022	145
0	5545	186697.050328890165	146
0	5547	186835.379690096574	145
0	5560	187067.471521503791	146
0	5562	187316.357487195858	147
0	5572	187691.18750762887	146
0	5580	187947.737899988365	145
0	5593	188055.823173175082	146
0	5595	188176.192476690607	145
0	5600	188585.675277680493	146
0	5610	188681.64887913151	147
0	5612	188742.950217816665	148
0	5617	188837.245273895037	147
0	5622	189078.945826024573	148
0	5629	189258.402359478973	149
0	5631	189578.264823020922	150
0	5633	189609.062562702434	151
0	5635	189649.561678000586	150
0	5656	190288.868039480817	149
0	5661	190313.034220465319	148
0	5677	191196.285730932195	149
0	5679	191580.679122560518	148
0	5689	191794.974126815325	149
0	5691	191797.230284071934	148
0	5699	192010.726673171716	147
0	5704	192114.031791371205	148
0	5706	192148.393683448595	149
0	5713	192483.360843860405	148
0	5718	192707.693844245875	149
0	5723	192742.178791493551	150
0	5736	192862.604655208959	151
0	5738	193435.443230166507	150
0	5743	193444.880813487666	149
0	5761	194340.414346725664	150
0	5763	194423.559255830419	149
0	5768	194465.06371427439	150
0	5773	194677.822971350786	151
0	5775	194734.477643721598	150
0	5780	194889.021435647678	149
0	5804	195626.310860977369	148
0	5812	196224.945134229433	147
0	5822	196902.542211933002	148
0	5829	197107.037297242182	147
0	5834	197107.970330126059	146
0	5845	197320.942623269927	147
0	5847	197380.437815749803	148
0	5854	197569.159574292076	147
0	5859	197949.272610840378	148
0	5861	198215.933347276819	147
0	5871	198290.380023648104	148
0	5873	198384.807126931664	149
0	5875	198396.058404782012	150
0	5891	198746.953700871068	149
0	5912	199739.601274959219	148
0	5917	199760.364464276331	147
0	5927	200138.239908895863	146
0	5932	200182.198477978947	147
0	5934	200323.759259163312	148
0	5936	200395.425859721657	149
0	5946	200759.387499547971	148
0	5956	200949.034359880584	147
0	5967	201711.618603512121	146
0	5980	202086.028757912575	147
0	5982	202255.102180254501	148
0	5992	202352.797964852909	149
0	5994	202382.516431352657	150
0	6001	202579.443919413584	149