version 2
run Iteration-22-20200521-09:52:09-36628
attr configname Iteration
attr datetime 20200521-09:52:09
attr experiment Iteration
attr inifile omnetpp.ini
attr iterationvars "$i=2, $j=10, $0=15-(2+10)"
attr iterationvarsf i=2,j=10,15-(2+10)-
attr measurement "$i=2, $j=10, $0=15-(2+10)"
attr network Network
attr processid 36628
attr repetition 0
attr replication #0
attr resultdir results
attr runnumber 22
attr seedset 22
itervar i 2
itervar j 10
param **.resourcePool.amount 2
param **.resourcePool1.amount 10
param **.resourcePool2.amount 15-(2+10)
param **.source.interArrivalTime exponential(6min)
param **.delay.delay uniform(4min,28min)
param **.delay1.delay uniform(10min,28min)
param **.delay2.delay uniform(4min,16min)
param **.allocate.resourceModuleName "\"Network.resourcePool\""
param **.allocate1.resourceModuleName "\"Network.resourcePool1\""
param **.allocate2.resourceModuleName "\"Network.resourcePool2\""
param **.deallocate.resourceModuleName "\"Network.resourcePool\""
param **.deallocate1.resourceModuleName "\"Network.resourcePool1\""
param **.deallocate2.resourceModuleName "\"Network.resourcePool2\""
param **.router.randomGateIndex "uniform(0, 1) > 0.2 ? 0 : 1"

vector 0 Network.allocate queueLength:vector ETV
attr interpolationmode sample-hold
attr title "queue length, vector"
vector 1 Network.allocate1 queueLength:vector ETV
attr interpolationmode sample-hold
attr title "queue length, vector"
vector 2 Network.allocate2 queueLength:vector ETV
attr interpolationmode sample-hold
attr title "queue length, vector"
vector 3 Network.sinkStat lifeTime:vector ETV
attr interpolationmode none
attr title "lifetime of arrived jobs, vector"
attr unit s
vector 4 Network.sink lifeTime:vector ETV
attr interpolationmode none
attr title "lifetime of arrived jobs, vector"
attr unit s
0	0	0	0
0	8	991.988874135997	1
0	10	1017.779920400054	0
0	15	1357.271258412746	1
0	17	1365.527484834688	0
0	22	1424.854065088234	1
0	24	2230.472706140816	2
0	30	2344.031439803047	3
0	36	2495.001997278006	2
0	49	2766.868662757408	3
0	51	2770.678425501556	4
0	53	2824.788423300283	3
0	58	2830.734296310402	4
0	60	3052.384500616164	3
0	65	3420.50110738811	2
0	70	3435.727826381746	3
0	80	3645.797912480899	4
0	86	3872.921748318272	3
0	95	4178.09466645718	4
0	97	4178.190360527143	5
0	103	4305.35002392231	6
0	109	4831.305199844482	7
0	111	4912.068880275757	6
0	128	5250.867948022517	7
0	134	5451.689998807159	8
0	136	5492.200068019825	7
0	141	5767.685945628891	8
0	151	6305.966908269125	7
0	156	6498.544508256883	6
0	165	6877.909406401597	7
0	175	7875.475602865714	6
0	180	7892.465632369001	7
0	182	7962.925490557662	8
0	188	8157.345549434918	7
0	193	8162.540732995541	6
0	198	8336.572842542775	7
0	204	8479.47590807495	8
0	206	8592.23213166793	7
0	211	8949.104251757243	8
0	221	9210.177144647576	9
0	231	9529.601439692575	8
0	248	9754.320739769311	7
0	261	10175.338245380599	8
0	263	10397.424122784753	9
0	265	10399.861591168243	8
0	270	10445.580673962936	9
0	272	10718.462716230126	8
0	281	11052.166511801586	9
0	291	11154.409210166183	10
0	297	11491.008961930392	11
0	299	11586.651276693243	10
0	304	11639.669118896993	9
0	309	11702.000743296027	10
0	315	11857.802086741227	9
0	328	12511.175406917643	10
0	334	12677.310125984746	9
0	343	12974.995086798514	10
0	349	13007.468702654702	11
0	351	13007.851452940079	10
0	356	13067.604883097607	9
0	365	13143.183507987259	10
0	379	13778.010177477333	11
0	385	13848.372832931205	12
0	391	14269.987455793592	11
0	400	14501.861700833339	10
0	405	14517.925332673761	9
0	410	14552.217771687665	10
0	424	15177.095134461698	11
0	426	15187.556326141354	12
0	428	15252.091161427862	13
0	434	15361.594351307425	12
0	439	15717.312932096917	11
0	456	16165.951635808248	10
0	465	16473.837885128199	11
0	470	16546.130568158654	12
0	481	16801.592524456316	13
0	487	16963.33582319406	12
0	492	17229.336643673975	11
0	505	17565.978964493546	10
0	510	17584.930186987557	11
0	512	17596.063885887833	12
0	514	17655.665207853329	13
0	524	18041.201023843506	14
0	538	18710.743098043401	13
0	543	18809.980342649791	12
0	556	19326.322439756293	13
0	562	19630.107456605987	14
0	564	19780.621552952502	13
0	573	20104.073688984785	12
0	578	20113.993396170933	11
0	583	20139.91874168193	12
0	585	20202.287008489955	13
0	587	20364.312427704247	14
0	589	20404.713078574384	15
0	595	20486.13885051379	16
0	601	20984.756257274125	15
0	614	21226.733035700075	16
0	616	21237.228290162471	17
0	618	21243.119270883996	16
0	635	21828.594698576508	17
0	637	21877.670342399579	18
0	639	21955.060390505583	19
0	645	22092.655775585149	18
0	654	22336.767415931348	19
0	660	22446.033257246886	18
0	665	22497.306410193939	17
0	678	22809.385724618236	18
0	680	23014.91210883589	19
0	682	23073.922886479254	20
0	684	23121.850304760535	19
0	693	23334.175210656552	20
0	695	23346.820114864806	21
0	697	23418.110188765481	22
0	703	23805.84892210414	21
0	712	23963.59267015097	20
0	725	24159.259633475118	21
0	731	24335.040147027203	22
0	737	24529.296851515432	23
0	739	24549.957537621756	22
0	748	24650.537515966731	23
0	754	25218.755835565747	24
0	764	25443.313284405445	23
0	773	25804.635301681304	24
0	775	25833.728135459621	23
0	780	25957.020903230873	24
0	782	26001.235787287808	25
0	788	26092.008144346838	26
0	790	26127.140762664874	25
0	799	26228.411229265838	26
0	801	26585.84442662911	27
0	815	27015.364153907572	26
0	820	27017.702268183728	25
0	833	27303.303312870338	26
0	835	27396.911085378009	27
0	837	27406.028093757638	28
0	843	28057.41132415335	29
0	849	28192.462158099314	28
0	858	28314.498713534608	29
0	860	28362.082185237016	30
0	862	28431.772035733734	29
0	867	28470.934489824375	28
0	876	28714.202982076381	27
0	881	28716.147745930156	26
0	890	29067.79246855614	25
0	899	29223.707454323573	26
0	915	29733.538779102763	25
0	925	29913.848260604714	24
0	943	30227.981452880372	25
0	949	30486.891172500927	26
0	955	30925.959204215579	27
0	969	31392.884560526286	26
0	974	31406.363599084815	25
0	983	31592.625592625163	26
0	989	31883.37635292398	27
0	991	31894.340782352661	26
0	1000	32121.343806032284	27
0	1010	32310.015199230682	28
0	1012	32474.21650265207	27
0	1017	32499.919123650466	26
0	1026	32797.731678783877	27
0	1028	32827.835046035849	28
0	1030	32964.459273616141	29
0	1044	33889.832886793588	28
0	1049	33996.662897699635	29
0	1055	34151.519418105981	28
0	1068	34659.363767289123	27
0	1077	35085.389764789314	28
0	1079	35166.684483223161	27
0	1088	35272.828977436823	28
0	1090	35279.977002070223	27
0	1095	35449.667997086245	28
0	1101	35470.384974122177	29
0	1103	35755.003083095452	28
0	1112	35980.897989571964	27
0	1117	36008.971032258451	28
0	1135	36654.689273042206	29
0	1141	36934.707279372233	30
0	1143	37056.971861422931	29
0	1156	37190.924187393069	30
0	1158	37215.541312963268	29
0	1167	37353.540597285702	30
0	1169	37638.953697142878	31
0	1171	37685.109103024875	30
0	1184	37960.158938022849	31
0	1190	38204.45754893211	30
0	1203	38689.667114094769	29
0	1208	38867.98905444195	28
0	1213	38896.352963707716	29
0	1231	39421.090606638168	28
0	1240	39463.784705016525	29
0	1250	39839.868163884184	28
0	1255	39845.353298879724	29
0	1261	40086.238798209033	28
0	1270	40257.031481446451	29
0	1276	40420.693804780781	30
0	1278	40742.122069323846	31
0	1280	40793.897626639616	32
0	1282	40823.407423608874	31
0	1287	40963.844273284576	30
0	1296	41252.996060260139	29
0	1301	41311.89990657376	30
0	1307	41449.641670158466	31
0	1313	41736.462830809436	32
0	1315	41938.255833234722	33
0	1321	41982.937220112358	32
0	1338	42320.654764518641	31
0	1351	42838.149888315418	32
0	1357	43169.421835359784	33
0	1363	43264.980756306027	32
0	1372	43522.113068596028	31
0	1377	43603.332748488461	30
0	1386	43890.916935788547	31
0	1388	44034.453936741625	30
0	1397	44296.880509669569	31
0	1407	44400.350088488988	32
0	1409	44499.012198174963	33
0	1411	44658.513521969818	32
0	1428	45341.586473788693	33
0	1434	45626.916406453525	32
0	1443	45778.692469418549	31
0	1460	46091.906321503907	32
0	1462	46313.84731426922	31
0	1467	46515.297024463891	32
0	1469	46561.300113683527	33
0	1475	46809.596908519989	34
0	1489	47114.576895784197	35
0	1491	47133.015282981598	34
0	1500	47402.12617188779	33
0	1509	47468.293727263446	34
0	1511	47619.621912246682	35
0	1517	48068.92813433749	36
0	1519	48124.751901183052	37
0	1521	48347.835416921049	38
0	1527	48492.167495175487	39
0	1529	48552.830512382591	38
0	1538	48573.120247649863	39
0	1540	48974.027141849629	40
0	1546	49079.464923330521	39
0	1559	49457.625948273146	38
0	1564	49471.50501313082	39
0	1570	49567.098100804162	40
0	1572	49851.288614497458	39
0	1577	49891.40376053125	40
0	1591	50332.661544576788	39
0	1600	50998.095942875726	40
0	1606	51174.551220924972	41
0	1608	51201.803537570721	42
0	1618	51459.80386671474	41
0	1623	51466.209012419855	40
0	1636	52331.894946972312	41
0	1638	52551.130555049455	40
0	1647	52634.495648973191	39
0	1652	52694.60612480928	40
0	1662	53259.927409105873	39
0	1675	53736.317995794618	38
0	1680	54063.778845427109	39
0	1686	54190.464071297026	38
0	1695	54672.989783965552	37
0	1708	55036.062268697226	36
0	1713	55108.862288238084	37
0	1715	55121.650511205136	38
0	1717	55233.506756019091	39
0	1727	55557.839086242891	38
0	1732	55562.032521288038	39
0	1738	56012.862438150621	38
0	1743	56086.288429208601	37
0	1768	56612.679776672959	38
0	1770	56806.115871093353	39
0	1772	56817.203796157064	40
0	1778	57048.341278717556	41
0	1784	57162.661463924254	40
0	1793	57275.690372140086	39
0	1798	57371.95580064203	40
0	1804	57579.584049737995	41
0	1806	57903.060524428189	42
0	1808	57908.177672558035	41
0	1817	57981.839281904277	42
0	1819	58047.880569249493	43
0	1833	58752.892863569992	44
0	1835	58827.884985924269	43
0	1840	58838.99221547035	42
0	1845	58878.916675005467	43
0	1851	59119.269133553411	42
0	1860	59199.054576047635	41
0	1865	59424.149503157045	40
0	1874	59557.637834783025	41
0	1880	59717.892074064021	42
0	1882	59848.612865881002	41
0	1887	59868.565088304421	42
0	1889	59942.201057321232	43
0	1895	60077.395013859874	44
0	1913	60446.052082536442	45
0	1918	60534.036048844959	44
0	1936	61146.516889981363	45
0	1942	61343.555777080859	44
0	1951	61441.355817874916	45
0	1953	61460.276582614458	44
0	1958	61461.371190554137	45
0	1976	62319.914290198064	44
0	1981	62343.362196989859	43
0	1990	62669.791477405036	42
0	1995	62761.739947015969	43
0	2001	63023.211225248647	44
0	2007	63334.699565047629	45
0	2009	63399.555134649364	46
0	2011	63449.232199341929	45
0	2024	63609.333087700715	46
0	2030	63697.11028982749	45
0	2035	63812.713006513357	46
0	2045	64058.201187775409	45
0	2050	64139.317198521408	46
0	2056	64363.980016434779	47
0	2058	64433.513660767054	46
0	2063	64458.961821578944	45
0	2068	64616.018754735055	46
0	2070	64691.99695049051	47
0	2076	64782.516614583023	48
0	2082	64833.984152253984	49
0	2088	65066.694466174519	48
0	2093	65164.84885570457	47
0	2110	65610.399487024143	48
0	2112	65671.685606324304	49
0	2118	65822.077539415038	48
0	2123	65946.488663147311	49
0	2125	65960.9675411587	48
0	2138	66230.364498949078	49
0	2148	66601.534550339854	48
0	2153	66637.903992113853	49
0	2155	66659.397709675634	48
0	2160	66666.116134280431	49
0	2174	66904.133056160533	50
0	2176	67060.799158707762	49
0	2193	67375.684154487946	50
0	2199	67632.484875650366	51
0	2205	67819.363538705314	50
0	2218	68150.002344177044	49
0	2223	68195.696930247991	50
0	2225	68345.807002474354	51
0	2227	68415.892592161305	52
0	2241	68742.691533498968	51
0	2262	69787.251812965549	50
0	2271	69853.036080555365	51
0	2277	70266.498854578043	50
0	2282	70453.454519788212	51
0	2284	70515.89592792889	50
0	2293	71079.577585978018	51
0	2295	71100.885641669872	52
0	2297	71106.22746192006	51
0	2302	71198.270212034845	52
0	2304	71221.917953275646	51
0	2309	71310.780150698098	52
0	2327	72046.827199392523	51
0	2332	72066.06446709571	50
0	2337	72132.167918502907	51
0	2339	72159.100577000244	52
0	2349	72378.465442557362	53
0	2363	72974.012284855005	54
0	2365	73077.123620519266	55
0	2371	73099.668427875773	56
0	2377	73129.753174491729	55
0	2386	73397.404447832085	54
0	2391	73582.54568215384	55
0	2393	73983.33454527048	54
0	2402	74246.781036148011	55
0	2404	74690.962956325091	54
0	2409	74701.932659939434	53
0	2414	74716.319085343298	54
0	2420	74927.975375272228	55
0	2426	75046.0662766459	56
0	2428	75165.224589184798	55
0	2433	75269.769451932674	56
0	2447	75594.581842657162	57
0	2461	76059.797690472344	58
0	2463	76069.833966538813	57
0	2468	76151.417221214054	58
0	2474	76309.333609678723	57
0	2483	76658.477655567403	58
0	2489	76881.778908183327	59
0	2499	77208.731086845671	60
0	2505	77461.275388196614	59
0	2514	77784.925854989268	58
0	2527	78699.526096143332	57
0	2532	78720.217541555121	58
0	2542	78884.332159460463	57
0	2547	78902.155663650099	58
0	2553	79673.52355853206	59
0	2555	79737.398270408234	60
0	2561	79864.452226892723	61
0	2567	80040.347718001284	60
0	2572	80226.023102894929	59
0	2581	80708.360168786681	60
0	2587	81120.632229586598	61
0	2589	81135.746363837701	62
0	2591	81202.889960495546	63
0	2593	81214.697317168447	64
0	2599	81515.177598372974	63
0	2608	81655.934049740987	64
0	2610	81864.794602253047	63
0	2615	81870.799430940386	64
0	2617	81890.570183583476	63
0	2630	82489.930119182643	64
0	2640	82980.845517477022	65
0	2650	83241.546627917268	64
0	2655	83382.531215130598	65
0	2657	83437.623631887642	64
0	2666	83481.663265699405	65
0	2668	83589.208898230161	66
0	2670	83839.754062267228	67
0	2680	84077.620516975269	68
0	2686	84420.863134682683	67
0	2695	84677.657581307866	66
0	2700	84684.430179109724	67
0	2702	84910.472739011554	66
0	2715	85066.831770260616	67
0	2717	85148.705202972446	68
0	2719	85153.874872806447	69
0	2721	85553.102212043878	70
0	2727	86098.354410902538	69
0	2736	86506.621485919265	68
0	2757	87438.550223200048	69
0	2759	87475.992333300916	68
0	2764	87479.658876484905	69
0	2766	87608.217850998916	68
0	2771	87608.265473446857	69
0	2773	87613.048568618532	70
0	2779	87912.465450250387	71
0	2781	87933.653327041246	70
0	2786	87977.522275888027	71
0	2796	88286.909768110949	72
0	2798	88314.887041010467	71
0	2803	88366.106516198233	72
0	2809	88641.610888995212	73
0	2815	88693.105042130627	72
0	2824	88821.830458649007	71
0	2841	89207.956339829542	70
0	2846	89250.47883459231	69
0	2851	89250.656283493887	70
0	2853	89485.283240869391	71
0	2859	89779.141460407145	72
0	2861	89790.785502287869	73
0	2871	90104.522596456615	72
0	2900	90795.571831204869	71
0	2905	90908.664830527509	72
0	2907	90991.647203498093	71
0	2912	91097.248471092915	72
0	2918	91459.264727869012	71
0	2931	91862.227669938437	72
0	2941	92114.698581219224	71
0	2946	92147.500879553088	72
0	2948	92220.425635390856	71
0	2957	92542.735295628518	72
0	2967	92791.701994598325	73
0	2973	93096.602832824864	72
0	2982	93327.638284966823	73
0	2984	93560.531517014412	72
0	3001	94036.885739923711	73
0	3011	94633.159742828765	74
0	3013	94746.983643584826	73
0	3018	94756.824976176528	72
0	3027	94941.718974899163	73
0	3029	95243.549062507938	74
0	3035	95683.345171871138	75
0	3037	95760.527223903981	76
0	3039	95824.395133339373	75
0	3044	95837.26646000129	76
0	3054	95987.228881382325	75
0	3067	96311.575946883038	76
0	3069	96634.770500074249	77
0	3071	96737.289459787814	76
0	3084	97204.101210880847	77
0	3090	97566.109473780671	76
0	3095	97858.823476631071	77
0	3101	97968.684917919843	76
0	3106	98001.327513968765	77
0	3112	98176.252520737415	78
0	3118	98469.115719749466	79
0	3128	98612.467727260578	80
0	3134	98713.56711186556	79
0	3139	98776.774973608092	80
0	3141	98973.178125249302	81
0	3143	99245.013839498668	80
0	3152	99866.711517562554	81
0	3154	99925.46942956833	80
0	3163	100113.842822794842	81
0	3169	100556.670899436384	80
0	3178	100681.318922528008	79
0	3187	101083.247950617672	80
0	3189	101172.404904567049	81
0	3191	101319.402207479387	80
0	3200	101422.803564108757	81
0	3206	101513.748372943083	80
0	3223	101798.75930287435	81
0	3225	101851.415257626887	82
0	3227	102098.837105068167	83
0	3229	102173.529768952922	84
0	3235	102458.526215111863	85
0	3237	102519.955717363337	84
0	3242	102532.850717090576	83
0	3251	102873.428067214255	84
0	3253	102919.668919668475	83
0	3270	103608.796390781949	84
0	3276	103773.165841185062	83
0	3289	103937.711477484551	84
0	3291	104168.726877720037	83
0	3296	104191.67740964195	82
0	3309	104569.808853004419	83
0	3319	104726.664766632894	82
0	3324	104822.069375160288	83
0	3326	104832.17165741329	84
0	3340	105305.214879064664	85
0	3346	105499.641139179974	84
0	3355	105795.77496338723	83
0	3360	106098.653697885089	84
0	3366	106245.352069966602	85
0	3368	106261.404380628178	86
0	3370	106300.183885845832	87
0	3372	106303.46742213568	86
0	3377	106541.967148689121	87
0	3383	106633.864232607623	88
0	3385	106822.425263801118	89
0	3387	106837.912807949761	88
0	3396	106961.759150700338	89
0	3402	107255.760272114257	90
0	3408	107309.742095702925	91
0	3426	107674.033815824369	90
0	3431	107779.268475741654	89
0	3440	108289.663409595112	90
0	3442	108474.076665647834	89
0	3451	108700.35561154122	90
0	3453	108799.084137641767	89
0	3462	108912.278274491935	88
0	3471	109351.883303337673	87
0	3500	110084.26472066938	88
0	3502	110090.119012436121	89
0	3504	110097.587474993964	90
0	3506	110262.004065111785	89
0	3519	110312.99167055724	88
0	3524	110778.529686075207	89
0	3526	110783.94821208766	88
0	3531	110887.028136654698	89
0	3541	111337.772036100173	90
0	3543	111438.161122455072	91
0	3545	111458.391323090473	90
0	3554	111852.256983086515	91
0	3560	111967.33073506109	92
0	3562	111990.804472767478	93
0	3564	112123.809535995632	92
0	3577	112393.427787094808	93
0	3579	112597.794299266272	94
0	3581	112718.921245219124	95
0	3587	112783.290434853116	94
0	3592	112859.789948987471	95
0	3598	113414.081136592239	94
0	3611	113773.431074170142	95
0	3617	113999.365082303127	96
0	3627	114231.132431031147	95
0	3640	114914.783410189275	96
0	3642	114938.13149784978	97
0	3644	114988.351143890644	98
0	3646	115005.214470819145	97
0	3651	115017.33481174001	98
0	3653	115111.364885680219	99
0	3655	115355.036603965371	98
0	3660	115361.511745602766	97
0	3669	115427.338361310133	98
0	3671	115484.73685044734	99
0	3677	115781.401380959485	100
0	3679	115836.638582767556	101
0	3689	116197.485486120859	100
0	3694	116374.936359867959	99
0	3699	116497.778439112881	98
0	3712	116617.525681842886	99
0	3714	116682.075242718459	100
0	3720	116916.589004517107	99
0	3725	116920.502637160083	100
0	3727	117182.373036191373	99
0	3736	117484.7156865531	98
0	3749	117776.102994706202	99
0	3751	117799.117907861902	100
0	3765	117948.532233171671	99
0	3794	118911.475994289795	98
0	3799	119178.204963438719	97
0	3804	119242.877229229489	96
0	3817	119548.859443590918	95
0	3822	119813.473515853792	94
0	3827	119897.489565580179	95
0	3841	120493.275001451754	96
0	3855	120838.316039220372	95
0	3864	121069.750473606374	96
0	3866	121219.972403214592	97
0	3868	121225.201507218688	96
0	3877	121334.425664324717	97
0	3887	121530.607757050224	98
0	3893	121991.782458389118	99
0	3899	122082.713792384311	100
0	3901	122201.391481805503	101
0	3903	122349.229147518467	102
0	3909	122384.64800005692	103
0	3911	122512.103932165483	102
0	3916	122575.304923363536	101
0	3925	122823.171011131069	102
0	3939	123315.57398758916	101
0	3952	123837.394879729062	100
0	3957	124173.12713094143	99
0	3966	124412.864220858127	98
0	3975	124846.09914378933	99
0	3977	124973.094392326069	100
0	3995	125319.903782912106	99
0	4000	125390.943567977229	98
0	4005	125397.868909728559	99
0	4007	125511.757509263205	100
0	4013	125903.227853444618	101
0	4015	125969.708068923219	102
0	4017	126284.84188156717	103
0	4031	126501.589064758859	104
0	4033	126633.513129928043	105
0	4035	126748.876216382296	104
0	4040	127065.540868454555	103
0	4049	127145.670160748757	104
0	4055	127661.612918505155	105
0	4057	127699.585208304734	104
0	4062	127777.321549041647	105
0	4068	128376.159059219936	104
0	4081	128726.268598102907	103
0	4086	128737.545440555139	104
0	4088	128761.298006216546	105
0	4090	128799.187207513053	106
0	4092	128863.786800060763	107
0	4094	129045.41595516688	108
0	4096	129163.162286438556	107
0	4117	129732.391642034928	106
0	4122	129741.001615718515	105
0	4135	129878.370788809826	106
0	4137	130126.928881082546	107
0	4139	130318.001950404579	108
0	4149	130574.628575563939	107
0	4154	130582.609271328314	108
0	4156	130590.199013874809	107
0	4161	130592.927734021049	108
0	4167	131000.807690509538	107
0	4180	131335.158796373621	108
0	4186	131585.382454334105	109
0	4192	131970.902541541438	108
0	4197	131995.041586678643	109
0	4203	132065.373750485988	108
0	4216	132452.044944298444	109
0	4218	132461.453035020025	110
0	4228	132749.738671479801	111
0	4238	133500.029432483526	110
0	4243	133597.404138632994	109
0	4256	133933.559547331816	110
0	4258	134175.845714740964	109
0	4271	134334.238387944797	110
0	4277	134417.520729125055	109
0	4282	134455.945391693097	108
0	4287	135009.082524039698	109
0	4305	135265.704723336678	108
0	4310	135444.728315368804	107
0	4315	135491.94874926052	108
0	4329	136141.233848699586	109
0	4331	136181.805926643821	108
0	4344	136543.982066587489	107
0	4349	136608.358708961045	108
0	4351	136620.056400307032	107
0	4360	136850.62282515324	108
0	4366	137073.500364756708	109
0	4368	137123.686085879041	110
0	4378	137562.922498352029	111
0	4388	137825.820509836587	110
0	4393	138065.791266670633	111
0	4395	138086.021327265482	110
0	4408	138280.004210968992	111
0	4414	138526.775115140292	110
0	4423	138833.938366101067	109
0	4436	139193.484859389687	110
0	4438	139388.486871198695	109
0	4443	139406.857756068147	110
0	4445	139537.74560351548	111
0	4451	139718.035017739842	112
0	4453	139747.349151951318	113
0	4463	139925.350798675597	114
0	4465	139964.698974683106	115
0	4467	140061.947818145666	114
0	4476	140489.661897480324	115
0	4486	140700.59446714906	114
0	4499	141406.428066641968	113
0	4504	141534.875926495109	112
0	4513	142028.353534118217	111
0	4518	142339.022556540904	112
0	4528	142461.00776173262	111
0	4533	142468.035328296264	112
0	4539	142765.218256577593	113
0	4541	142831.846509062264	112
0	4554	143252.599811611459	113
0	4556	143311.752634496373	112
0	4565	143569.855570636703	113
0	4579	143913.639779818708	114
0	4585	144178.569342755143	115
0	4587	144251.382797442887	114
0	4596	144473.047438348831	115
0	4602	144828.052267664586	116
0	4604	144879.604307972771	115
0	4613	144917.219632535173	116
0	4615	145107.550503607916	117
0	4625	145471.667950384829	116
0	4630	145631.196045595552	117
0	4644	146247.859476060552	116
0	4657	146896.014154313023	117
0	4659	146939.706000097606	116
0	4664	147017.729423046989	115
0	4677	147526.601513259964	116
0	4679	147594.62367262779	115
0	4688	147796.740965237827	116
0	4698	148406.297690459473	115
0	4703	148408.188270226631	114
0	4716	148858.79013981771	115
0	4718	148910.814781071612	116
0	4720	149112.424759425733	115
0	4725	149132.684846683466	116
0	4731	149159.711674466078	117
0	4733	149223.756632050055	118
0	4743	149666.010701515291	117
0	4748	149729.133877322321	118
0	4750	149755.12434762059	117
0	4755	149831.968382760731	118
0	4765	150052.852650858289	119
0	4767	150408.059168407099	120
0	4777	150959.158741951499	119
0	4782	151021.9639987085	120
0	4784	151151.274053269012	119
0	4805	152052.018287860367	118
0	4814	152316.328566671295	117
0	4823	152694.744823309973	118
0	4837	153099.06834424471	119
0	4839	153395.736081400189	120
0	4845	153629.397254258904	119
0	4850	153742.327281945331	118
0	4863	154167.822739754258	119
0	4865	154355.071844601355	120
0	4871	154530.628432676706	119
0	4876	154533.485637749347	120
0	4886	155220.992771499736	119
0	4899	155829.250251509759	118
0	4904	156158.281706089297	119
0	4910	156219.050513877582	120
0	4912	156470.156371370835	119
0	4921	156953.232635223253	118
0	4930	157317.230503853991	119
0	4932	157385.604786912161	120
0	4938	157432.02987138978	119
0	4943	157434.573872140982	120
0	4961	158239.917321630608	121
0	4963	158429.778788053377	120
0	4976	158805.860094063494	119
0	4981	158857.920905252468	120
0	4983	159143.96104943095	119
0	4996	159676.642580877631	120
0	4998	159719.952510131277	121
0	5000	159728.023372274485	122
0	5006	160076.284137189898	121
0	5015	160203.215709952657	122
0	5021	160374.516040881113	123
0	5023	160461.672128700598	122
0	5032	160601.889306591357	123
0	5034	160626.380265684103	124
0	5036	160673.343838198132	125
0	5046	160961.149474402096	126
0	5052	161158.193186953223	127
0	5054	161581.455081113193	126
0	5059	161585.821055871505	127
0	5065	161988.092138716718	128
0	5067	162115.421070457383	127
0	5076	162147.09561650506	126
0	5081	162339.895950444518	127
0	5091	162877.473271543116	128
0	5093	163014.489649951968	127
0	5098	163119.75192678681	128
0	5104	163232.270557193743	129
0	5106	163295.367224264047	130
0	5108	163425.947710388287	129
0	5117	163582.633504119048	130
0	5123	163679.476382891678	131
0	5125	164022.654955993783	132
0	5131	164049.200524136934	131
0	5136	164232.953257934137	130
0	5149	164760.763677478347	129
0	5154	164845.355306268616	128
0	5163	164930.263742288306	129
0	5169	165088.177292727444	128
0	5174	165374.888338223512	129
0	5180	165603.940637589719	130
0	5182	165648.958139435513	131
0	5184	165674.268406481428	130
0	5189	165738.786349585512	131
0	5207	166164.742177776067	132
0	5217	166628.499184330807	133
0	5227	166762.327596702192	132
0	5232	166833.515496331774	133
0	5234	166888.200759807512	134
0	5240	167051.469237842543	133
0	5257	168084.410496802015	132
0	5266	168172.507749952886	131
0	5275	168318.167886361287	132
0	5277	168549.356228446526	133
0	5279	168579.469550994863	134
0	5281	168664.959751189265	133
0	5294	169074.142897021476	134
0	5296	169214.500023835285	133
0	5305	169476.657616868319	134
0	5307	169499.918718780759	135
0	5313	169970.604815148695	134
0	5322	170134.479255013678	133
0	5327	170241.84226427673	134
0	5329	170281.9189949605	135
0	5335	170310.990859313021	136
0	5353	171445.726281300697	135
0	5358	171461.627854854746	134
0	5371	171860.064469069238	135
0	5373	171902.645141445978	134
0	5378	171950.078373224053	133
0	5387	172216.346868070087	134
0	5393	172478.353561610861	133
0	5398	172548.663997822574	134
0	5400	172619.401300706479	133
0	5405	172805.33827755688	132
0	5418	172927.209363920582	133
0	5420	172987.572198745261	134
0	5422	173079.620578364416	133
0	5443	173446.697302471338	134
0	5445	173458.618243977937	133
0	5454	173636.819579854889	134
0	5456	173754.138057882267	135
0	5458	173761.401856680154	136
0	5460	173810.98693441447	137
0	5470	174106.168851816042	136
0	5491	174866.170116011817	137
0	5501	175014.124003968223	138
0	5507	175095.455311439109	139
0	5509	175115.407769725236	138
0	5514	175420.226308001903	139
0	5516	175466.203346909813	140
0	5522	175556.462552324815	139
0	5531	175701.017205477609	140
0	5533	175884.038793638858	139
0	5538	175891.908461680598	140
0	5548	176230.088834356621	141
0	5562	176687.901424550029	140
0	5567	176690.11936950553	141
0	5573	176957.360380688735	142
0	5575	177100.107353036321	143
0	5577	177179.010510967059	142
0	5582	177189.211101182894	143
0	5588	177502.709346772544	144
0	5598	177979.443783358249	143
0	5611	178460.490992635998	142
0	5616	178774.800164737685	141
0	5621	178819.144873291764	140
0	5630	179538.822895698421	141
0	5636	179610.5738148102	140
0	5645	179744.965477444742	139
0	5650	180174.888093573245	140
0	5656	180259.705691748245	139
0	5665	180362.450427583962	140
0	5683	180816.066312455672	141
0	5685	180891.456577331705	140
0	5694	180948.518736295913	139
0	5703	181225.739622850812	140
0	5709	181574.896420620893	139
0	5722	181943.059781984006	138
0	5735	182456.669454687221	137
0	5752	182989.140738331293	136
0	5757	183100.404591340983	137
0	5767	183347.360317111893	136
0	5772	183531.368251560189	137
0	5774	183534.675337046896	136
0	5783	183721.670113440829	137
0	5797	184402.434622154258	138
0	5799	184445.589158982916	137
0	5816	184569.409473151877	138
0	5822	184800.158645970777	139
0	5824	185106.052396037562	138
0	5829	185131.678860717033	137
0	5834	185219.96524312748	138
0	5840	185543.401707063475	139
0	5842	185595.336061063922	140
0	5848	185689.718805592407	141
0	5850	185948.197139472281	140
0	5855	186015.37733300329	141
0	5865	186595.726216548069	140
0	5886	187209.270942782235	141
0	5888	187378.428479098661	140
0	5893	187461.264869168913	139
0	5902	187811.569525302334	138
0	5911	188322.13552721641	137
0	5916	188500.702524914687	138
0	5918	188589.511294500346	139
0	5924	188717.502392588674	140
0	5926	188729.336226232397	141
0	5932	188824.072506915462	142
0	5942	188939.686932467009	143
0	5947	189026.426215142524	142
0	5957	189058.083648985068	143
0	5963	189368.42078503309	142
0	5968	189424.671857427222	143
0	5978	189886.423973664089	144
0	5984	190286.697513110745	145
0	5986	190471.743405352766	146
0	5988	190541.45898011378	145
0	5997	190954.357323530342	146
0	6003	191034.135153741522	145
0	6008	191205.23307324667	146
0	6010	191465.261974103857	147
0	6012	191538.244261712348	146
0	6017	191584.305946743426	147
0	6023	191682.667836064979	148
0	6029	191845.676830371586	149
0	6035	192252.77449243567	148
0	6044	192444.60398703537	149
0	6046	192457.574886861306	150
0	6048	192483.519632668181	149
0	6053	192486.667060298176	150
0	6063	192867.215627895395	151
0	6065	193090.465425537412	152
0	6067	193184.814411744988	151
0	6084	193832.350807004555	150
0	6089	193974.848036939324	151
0	6095	194264.543205433107	150
0	6104	194318.403332122548	149
0	6113	194530.867450766779	148
0	6118	194566.801086535835	149
0	6120	194766.289113621228	150
0	6122	195112.025712803884	149
0	6135	195339.551470285218	150
0	6137	195405.195108498639	151
0	6147	195524.517663529716	152
0	6149	195562.813516974963	151
0	6158	195875.584733440552	152
0	6160	195882.738854868407	153
0	6166	195919.658307999886	152
0	6179	196127.925136787606	153
0	6181	196387.094951682671	152
0	6194	196495.367357577223	153
0	6196	196656.765560578665	154
0	6202	196727.579702972288	155
0	6208	196809.452785403415	154
0	6217	197128.222963696168	155
0	6219	197367.955033824361	154
0	6228	197409.004703012154	155
0	6238	197468.525067606983	156
0	6240	197548.209197504827	157
0	6242	197573.61206665723	156
0	6263	198445.550918254592	157
0	6269	198689.526302442834	156
0	6278	198976.98429089836	155
0	6283	199150.818903521583	154
0	6288	199166.326641659728	155