version 2
run Iteration-36-20200521-09:52:57-67004
attr configname Iteration
attr datetime 20200521-09:52:57
attr experiment Iteration
attr inifile omnetpp.ini
attr iterationvars "$i=4, $j=1, $0=15-(4+1)"
attr iterationvarsf i=4,j=1,15-(4+1)-
attr measurement "$i=4, $j=1, $0=15-(4+1)"
attr network Network
attr processid 67004
attr repetition 0
attr replication #0
attr resultdir results
attr runnumber 36
attr seedset 36
itervar i 4
itervar j 1
param **.resourcePool.amount 4
param **.resourcePool1.amount 1
param **.resourcePool2.amount 15-(4+1)
param **.source.interArrivalTime exponential(6min)
param **.delay.delay uniform(4min,28min)
param **.delay1.delay uniform(10min,28min)
param **.delay2.delay uniform(4min,16min)
param **.allocate.resourceModuleName "\"Network.resourcePool\""
param **.allocate1.resourceModuleName "\"Network.resourcePool1\""
param **.allocate2.resourceModuleName "\"Network.resourcePool2\""
param **.deallocate.resourceModuleName "\"Network.resourcePool\""
param **.deallocate1.resourceModuleName "\"Network.resourcePool1\""
param **.deallocate2.resourceModuleName "\"Network.resourcePool2\""
param **.router.randomGateIndex "uniform(0, 1) > 0.2 ? 0 : 1"

vector 0 Network.allocate queueLength:vector ETV
attr interpolationmode sample-hold
attr title "queue length, vector"
vector 1 Network.allocate1 queueLength:vector ETV
attr interpolationmode sample-hold
attr title "queue length, vector"
vector 2 Network.allocate2 queueLength:vector ETV
attr interpolationmode sample-hold
attr title "queue length, vector"
vector 3 Network.sinkStat lifeTime:vector ETV
attr interpolationmode none
attr title "lifetime of arrived jobs, vector"
attr unit s
vector 4 Network.sink lifeTime:vector ETV
attr interpolationmode none
attr title "lifetime of arrived jobs, vector"
attr unit s
0	0	0	0
0	39	2878.981589917343	1
0	41	2890.898605960443	2
0	48	3245.705411964047	1
0	52	3282.252281638786	0
0	116	5746.376889270239	1
0	122	6146.466430231251	2
0	124	6226.547003732805	1
0	128	6298.612346344497	0
0	132	6362.847639099231	1
0	139	6768.116249508198	0
0	143	6789.398480389013	1
0	145	6799.918853630645	2
0	147	6887.348156636292	3
0	149	6951.4216638817	2
0	153	7019.95527642682	3
0	155	7161.454452765737	4
0	157	7169.712987294734	5
0	163	7318.427980886583	4
0	167	7318.62044914718	5
0	169	7330.662526219126	4
0	173	7392.078448005822	3
0	177	7438.647827775638	2
0	181	7591.512611157119	3
0	188	7859.380922451042	4
0	190	7860.425301538269	3
0	194	7880.086656846882	4
0	196	7982.562980272677	3
0	204	8191.091677630131	2
0	208	8460.260243694873	3
0	210	8592.812786707143	2
0	214	8736.836035295291	3
0	216	8750.856559975978	2
0	220	8765.80081534553	1
0	224	8869.413089760999	0
0	233	9148.536069012108	1
0	235	9207.911937675413	0
0	239	9277.809909029108	1
0	245	9659.939747669604	0
0	272	10900.363334961976	1
0	274	10907.37205150246	0
0	306	11976.265330074696	1
0	308	12036.938100376133	2
0	310	12119.71859972798	3
0	317	12173.274842411876	2
0	321	12368.745603116373	3
0	323	12376.031041179045	4
0	325	12583.138645075501	3
0	333	12711.793039836586	2
0	342	13107.3238796096	3
0	344	13176.702033925746	2
0	348	13183.354749008059	1
0	356	13291.388348229316	2
0	358	13334.844987772645	1
0	362	13385.902660627398	2
0	364	13466.799653097954	3
0	366	13534.672342090845	2
0	370	13625.629928231479	1
0	374	13959.548990028559	2
0	376	14008.125022388041	1
0	380	14036.528695770205	0
0	480	18651.752762583048	1
0	482	18759.945875901689	0
0	530	20330.201254758799	1
0	532	20386.770226051076	0
0	765	30471.926352594776	1
0	767	30539.679734955967	0
0	771	30559.086536739142	1
0	773	30569.663410611875	0
0	777	30812.504178883954	1
0	784	31004.260044343466	2
0	786	31117.971626247524	1
0	790	31265.690023414701	2
0	792	31275.792383986951	1
0	796	31461.664576066259	0
0	800	31647.532377196709	1
0	806	31713.978047800783	0
0	822	32220.530859017081	1
0	824	32371.459512117568	2
0	826	32515.026774060922	3
0	833	32530.682151672963	2
0	837	32534.05888686633	1
0	841	32720.826126681638	0
0	849	33000.570192349223	1
0	851	33234.787179414219	2
0	853	33333.564191443447	1
0	857	33548.841444397908	0
0	861	33572.394733688878	1
0	863	33641.286343081673	2
0	865	33747.265422402474	3
0	867	33921.512142165824	4
0	874	34181.592684301793	3
0	878	34322.477726126087	2
0	886	34347.036011984173	1
0	890	34448.4512162835	0
0	894	34604.44190420655	1
0	896	34641.530428300243	0
0	900	34739.345440482041	1
0	902	34786.044298460494	2
0	904	34938.503164811736	3
0	906	34960.640652142482	4
0	908	35224.870389011032	5
0	910	35255.313077728945	6
0	912	35368.36218240416	5
0	916	35450.973282290224	4
0	920	35480.020912448019	5
0	927	35736.632944317532	4
0	935	36025.237369346064	3
0	939	36047.174668142523	4
0	941	36299.973523365331	3
0	945	36586.728103148996	2
0	949	36661.533106436554	1
0	953	36696.125482544733	2
0	955	36748.867513025177	1
0	959	36908.535403810164	2
0	966	36927.771486783963	1
0	970	37137.469011049031	0
0	974	37202.342764772269	1
0	976	37230.026145299498	0
0	980	37441.634590674537	1
0	986	37580.802947613042	0
0	990	37756.426273918692	1
0	992	38025.64330057844	2
0	994	38301.566314791862	1
0	998	38302.558287652207	0
0	1029	39396.043332846335	1
0	1036	39593.696335097341	0
0	1109	43872.989545017032	1
0	1115	43941.272756766942	2
0	1117	44209.702376105965	3
0	1119	44220.784096588367	4
0	1121	44425.622302828403	5
0	1123	44557.94741017482	4
0	1127	44605.682795614197	3
0	1131	44608.431923168814	2
0	1135	44802.569786805639	1
0	1144	45038.051482898426	2
0	1146	45081.16013685948	3
0	1152	45261.924674257619	4
0	1154	45591.204967373981	5
0	1156	45679.779606060252	6
0	1158	45801.498246375408	7
0	1160	45819.456847578574	8
0	1162	45860.295457433081	7
0	1166	45900.005748245845	6
0	1170	45933.931504644647	5
0	1179	46234.360029378149	4
0	1183	46296.916379042163	3
0	1187	46375.598707481325	4
0	1189	46610.498503047953	3
0	1193	46637.971621077501	4
0	1195	46644.610481174514	5
0	1197	46853.807538669477	6
0	1199	46943.02362748606	5
0	1203	46966.138914136512	6
0	1209	47117.549629442587	5
0	1218	47293.075377120993	6
0	1220	47296.887891085062	5
0	1224	47407.162961217678	4
0	1228	47468.736929234097	3
0	1236	47514.921679687133	4
0	1238	47706.559295773699	3
0	1242	48117.502601782895	2
0	1246	48210.970313858221	1
0	1250	48278.137040652954	2
0	1252	48296.389697003683	3
0	1254	48333.81921959779	2
0	1258	48388.597763931255	3
0	1265	48524.040651734091	2
0	1269	48635.759080618813	1
0	1277	48810.361576761802	2
0	1279	48947.13519455118	1
0	1283	49285.39641400474	2
0	1285	49326.280617493454	3
0	1287	49607.177813912846	2
0	1291	49806.647106193575	3
0	1293	49838.499711879704	2
0	1297	49839.751781885604	3
0	1304	49969.899313258175	4
0	1306	50146.414197504714	3
0	1310	50149.745451922633	2
0	1318	50439.104238983224	1
0	1322	50696.641252160266	0
0	1326	50850.079893450536	1
0	1328	50882.037065380428	0
0	1337	51183.099606022591	1
0	1339	51215.69525957872	0
0	1398	53832.433553856297	1
0	1400	53907.449324373381	2
0	1402	54034.815332105372	3
0	1404	54039.145192549138	4
0	1406	54114.706233160846	3
0	1415	54133.456250367825	2
0	1419	54276.644351032606	1
0	1423	54394.32857725263	0
0	1571	61543.867422167455	1
0	1573	61663.447949632293	2
0	1575	61779.160695986597	3
0	1577	61884.758175656615	4
0	1579	61993.610865632308	3
0	1583	62013.635858102851	2
0	1587	62338.347539441961	3
0	1593	62616.314068402619	2
0	1597	62669.773249973076	3
0	1604	62990.968546896391	2
0	1608	63043.473422930522	1
0	1612	63180.520928904429	2
0	1618	63275.569223584843	1
0	1622	63478.660167719693	0
0	1688	66276.781410624751	1
0	1694	66544.477919334053	2
0	1696	66665.470770774618	1
0	1705	66911.931024812703	0
0	1709	66988.691650049492	1
0	1711	67098.734091200914	2
0	1713	67267.274806771189	1
0	1717	67407.272406919137	0
0	1785	69308.571141717589	1
0	1787	69359.962619817107	0
0	1797	69831.713656037946	1
0	1799	69921.374571402882	0
0	1803	69930.505852558491	1
0	1810	70199.981977066792	0
0	1926	75341.961228515387	1
0	1928	75403.741122321948	0
0	1985	78338.254931665482	1
0	1987	78428.601881654265	2
0	1989	78446.170127387943	3
0	1995	78512.863908535748	2
0	1999	78616.446087331086	1
0	2003	78730.044685574552	0
0	2041	80292.42179952906	1
0	2047	80713.124845940798	0
0	2051	80726.372752468157	1
0	2053	80942.029529878942	0
0	2061	80980.738891075901	1
0	2063	80982.341842378005	2
0	2065	80994.315407925927	3
0	2067	81071.587711529399	4
0	2069	81103.007590179811	5
0	2071	81137.252286840409	4
0	2075	81188.489035695085	3
0	2079	81200.675837243048	2
0	2088	81461.626437321751	3
0	2090	81498.287514906326	4
0	2092	81607.778710502402	3
0	2096	81614.55157131615	4
0	2102	81708.285896302774	5
0	2104	82025.279153459353	6
0	2106	82076.893283969405	7
0	2108	82441.04458792153	6
0	2117	82773.631005316267	5
0	2121	82869.930173674671	4
0	2125	82909.596563096361	3
0	2129	82943.763856273323	2
0	2133	83025.346414776174	3
0	2139	83206.657284205994	4
0	2141	83380.858729159621	5
0	2143	83507.779377467225	4
0	2147	83694.602137674402	5
0	2149	83769.199090293835	4
0	2153	83845.761635926633	5
0	2160	84295.483156437127	4
0	2164	84309.936925705137	5
0	2166	84344.191117550449	4
0	2170	84495.452213008135	3
0	2174	84737.209322823309	4
0	2176	84781.954293119599	5
0	2178	84843.592242965547	4
0	2182	84849.434555947076	3
0	2190	85011.991668793575	2
0	2194	85230.732858135592	1
0	2198	85360.572553056494	0
0	2223	86281.76201327896	1
0	2225	86387.936625547003	0
0	2304	89486.824641171255	1
0	2306	89608.249258590749	0
0	2402	93560.609211456499	1
0	2408	93767.671597903733	0
0	2418	94190.18776613566	1
0	2420	94445.280291424293	0
0	2469	95814.691067969518	1
0	2476	96231.516560374844	2
0	2478	96398.363563383513	1
0	2486	96781.269219411261	0
0	2507	97382.032496297529	1
0	2513	97614.903415569368	2
0	2515	97675.271357970827	1
0	2524	97997.167185371363	0
0	2528	98125.636555000116	1
0	2530	98185.481029791482	0
0	2534	98223.288725781082	1
0	2540	98295.241169341244	2
0	2542	98320.621609920096	3
0	2544	98371.336212773729	4
0	2546	98419.49358984242	3
0	2550	98521.72994248453	4
0	2552	98595.157878895843	3
0	2556	98793.852593987215	4
0	2558	98838.332622622693	3
0	2562	98868.403687508505	2
0	2566	98980.125229256035	3
0	2568	98981.610435287052	2
0	2572	99072.347521274165	3
0	2574	99134.780907534139	4
0	2581	99392.210190965889	5
0	2583	99655.052786091071	4
0	2587	99702.892553066559	3
0	2591	99721.447909896815	2
0	2595	99777.081993346369	3
0	2601	100470.356953521915	2
0	2605	100627.483834701174	1
0	2614	101040.936699969316	0
0	2618	101182.570567662186	1
0	2620	101263.470182003182	0
0	2628	101413.388872119019	1
0	2630	101557.38901838898	0
0	2678	103437.712203883565	1
0	2680	103513.266259551769	0
0	2699	103964.13580430129	1
0	2701	104070.020755367879	2
0	2703	104310.378297091251	1
0	2707	104376.94021488474	0
0	2711	104393.806236483885	1
0	2713	104454.234417265557	2
0	2715	104472.233355306451	3
0	2717	104532.932427986302	4
0	2723	104828.742888204522	5
0	2725	104868.808305286398	4
0	2729	104942.351265395895	5
0	2731	105035.086928770976	6
0	2733	105055.268228778116	5
0	2737	105167.721152213697	6
0	2744	105258.734918562037	5
0	2748	105492.745551042332	6
0	2750	105520.634955711286	7
0	2752	105588.600807440136	8
0	2754	105648.600873889508	9
0	2756	105673.096734666055	8
0	2760	105679.284435936682	7
0	2773	106063.828670026235	6
0	2777	106308.01653687728	5
0	2781	106328.801269218853	4
0	2790	106653.475758721394	3
0	2798	106915.825768985486	4
0	2804	107022.786654987162	3
0	2808	107033.019277662566	2
0	2812	107421.702733339268	3
0	2814	107464.333915700914	4
0	2816	107503.880295035703	3
0	2825	107541.423529698489	4
0	2827	107677.534185065439	5
0	2829	107683.415249886537	6
0	2831	107690.197414287798	5
0	2835	107729.071376633556	6
0	2837	107767.4094863944	7
0	2839	107945.155367427101	6
0	2843	108006.17847802983	5
0	2847	108155.042255054702	6
0	2853	108403.773308338098	5
0	2857	108465.149550460806	4
0	2861	108516.993567653721	3
0	2865	108931.470503541813	4
0	2872	109156.027740330867	3
0	2876	109273.624904167764	4
0	2882	109510.385199691874	5
0	2884	109535.627909255488	4
0	2888	109938.632081941491	3
0	2892	110039.713255020188	4
0	2894	110065.711569212904	3
0	2898	110120.390408923192	2
0	2902	110146.909279727809	1
0	2915	110644.115179942422	0
0	2997	114128.102906027424	1
0	3004	114539.319034544093	2
0	3006	114804.436035152065	1
0	3014	114851.026961792619	0
0	3018	114854.906943932712	1
0	3020	115114.255870957757	0
0	3162	121775.401190084367	1
0	3164	122130.575574353478	0
0	3168	122199.41381630976	1
0	3170	122239.294545190711	0
0	3180	122432.282040482784	1
0	3182	122551.070683673039	0
0	3191	122621.632019557183	1
0	3193	122658.571969787505	2
0	3195	122870.263417905372	3
0	3197	123038.782658824999	2
0	3205	123339.394068174205	1
0	3209	123443.952548916237	2
0	3211	123468.422789536431	1
0	3215	123681.083925055642	0
0	3219	123887.730445739094	1
0	3221	123988.841100242624	0
0	3230	124089.640932154625	1
0	3232	124097.383274122474	2
0	3234	124102.012341866572	1
0	3238	124222.197523418537	2
0	3240	124459.329125709973	1
0	3244	124772.193838199021	2
0	3246	124853.988901749268	1
0	3254	124884.303342863326	2
0	3256	125063.528294124004	3
0	3258	125097.438960211654	2
0	3267	125223.955251072237	1
0	3271	125384.481828302286	0
0	3275	125416.02778959072	1
0	3277	125619.935515516584	2
0	3283	125814.971465654686	1
0	3287	125873.466641103544	2
0	3289	126061.238282335272	3
0	3291	126096.732118303259	2
0	3295	126108.214175273368	1
0	3299	126362.37585535862	0
0	3303	126493.91818784618	1
0	3305	126496.507525465497	2
0	3312	126950.05619300812	3
0	3314	126967.799132034324	2
0	3318	127011.053015390714	1
0	3322	127053.533453588078	0
0	3374	128667.759885993906	1
0	3376	129045.620144707661	2
0	3378	129408.106739065919	1
0	3386	129577.341282509631	0
0	3390	129606.397374743865	1
0	3392	129626.094158637032	0
0	3424	130613.223230299201	1
0	3430	130730.200908730879	0
0	3516	133608.340237322185	1
0	3518	133745.455545777235	0
0	3630	137458.780197196788	1
0	3632	137713.26143016307	0
0	3642	138077.858168214752	1
0	3649	138230.971573171554	0
0	3653	138279.591564235682	1
0	3655	138331.768238341463	2
0	3657	138371.901662228792	1
0	3661	138560.918208297476	0
0	3665	138769.613316310821	1
0	3667	138777.309801016491	2
0	3669	138792.819772335169	3
0	3671	138899.87568276876	2
0	3679	139026.013017705887	3
0	3681	139107.360937091641	4
0	3683	139338.601987217106	3
0	3692	139590.146993260965	2
0	3696	139902.948145803492	3
0	3698	139953.659809981129	4
0	3700	140008.846510192542	3
0	3704	140028.322079081223	2
0	3708	140065.24137944404	1
0	3717	140352.387702699885	0
0	3797	142717.87709752319	1
0	3799	142746.086233865848	2
0	3801	142806.935085768985	3
0	3803	143124.86624742964	2
0	3812	143402.082484771031	3
0	3814	143501.210781532234	2
0	3822	143654.972234877204	1
0	3826	143772.264595582278	0
0	3932	148114.564744843341	1
0	3938	148241.509556553923	0
0	3986	150256.899352491436	1
0	3988	150523.225433821048	2
0	3990	150595.938601555227	3
0	3996	150661.514739956913	4
0	3998	150928.10312529752	3
0	4002	150945.109856441393	2
0	4011	151186.042471756911	3
0	4013	151346.945053880509	2
0	4017	151457.375953250668	1
0	4025	151890.50965456023	0
0	4064	152925.275439666432	1
0	4070	152982.465405228947	0
0	4079	153097.852070282587	1
0	4081	153307.156929108005	2
0	4083	153350.310455807586	1
0	4087	153393.549815724498	2
0	4098	153978.769712470015	3
0	4100	154026.302920096137	2
0	4104	154057.254021849521	1
0	4108	154135.280349047391	2
0	4114	154287.63875460944	1
0	4118	154326.281968633187	2
0	4120	154373.514957078834	1
0	4124	154450.957673411436	2
0	4126	154545.644322915324	3
0	4128	154555.44213292379	2
0	4132	154558.615010806564	3
0	4134	154562.597266854966	4
0	4136	154962.739293418899	5
0	4138	154982.278779447593	4
0	4151	155631.995073917721	3
0	4155	155695.590160351285	2
0	4159	155705.62086439236	1
0	4163	155777.053585662555	2
0	4165	155984.125662916442	1
0	4169	156047.836647007653	0
0	4173	156082.542117237142	1
0	4175	156321.892256425568	2
0	4177	156392.763416157206	1
0	4181	156416.618049382526	2
0	4183	156550.469726548113	1
0	4187	156563.944475299865	2
0	4194	156780.663228342083	3
0	4196	156904.87265426717	2
0	4200	157168.892069186483	1
0	4204	157252.634021353015	0
0	4256	159835.259521287065	1
0	4262	159878.77737868889	0
0	4266	159922.074840839717	1
0	4268	159978.988664179889	2
0	4279	160573.78121354449	1
0	4283	160629.297118938122	0
0	4287	160645.478102199106	1
0	4294	160974.70355350836	0
0	4341	163191.547986921791	1
0	4343	163403.861840589328	2
0	4345	163488.013652543398	1
0	4349	163499.444634504004	0
0	4443	168433.934315996465	1
0	4445	168454.143351735232	0
0	4454	168881.650131370644	1
0	4456	168945.029586771729	0
0	4481	169786.600769366782	1
0	4487	170111.978052192984	0
0	4491	170301.311465428925	1
0	4493	170400.036146113875	0
0	4508	170665.540906983846	1
0	4510	170689.224710473932	0
0	4524	171608.085811829265	1
0	4526	171633.80751500071	2
0	4528	171728.581262873627	1
0	4537	171795.246213259402	0
0	4653	177930.11634523188	1
0	4655	177990.092062168343	0
0	4760	183778.857041372771	1
0	4766	183867.088651355288	0
0	4781	184232.899354489245	1
0	4783	184499.282699886089	2
0	4789	184842.984726670108	3
0	4791	184880.992534009005	2
0	4795	185275.179362236806	1
0	4799	185277.119641598246	0
0	4857	187520.601892767696	1
0	4859	187633.358121855176	2
0	4861	187843.180806741259	1
0	4865	187996.576682560706	0
0	4917	190227.04931191186	1
0	4924	190421.76432152802	0
0	4961	191776.006912999393	1
0	4963	192026.510499415802	0
0	4971	192394.629151243802	1
0	4973	192496.603574117528	0
0	5039	194561.301381278536	1
0	5041	194628.94373728945	0
0	5049	194855.491877117352	1
0	5051	195031.454464702786	2
0	5053	195112.125002919278	1
0	5057	195273.765366125432	0
0	5061	195323.456182227326	1
0	5068	195530.286964165772	0
0	5072	195549.099929911801	1
0	5074	195689.751474032058	0
0	5088	196109.236687907952	1
0	5090	196287.216879049196	0
0	5111	196879.023382836836	1
0	5117	197011.987989586818	2
0	5119	197022.154971863878	3
0	5121	197026.887381782054	2
0	5130	197135.856452094271	1
0	5134	197173.041071690252	2
0	5136	197354.107310228951	1
0	5140	197407.483457753318	2
0	5142	197503.709214997708	1
0	5146	197584.004702135183	0
0	5160	198072.978884424037	1
0	5162	198082.337125454697	2
0	5164	198092.608898598357	3
0	5166	198138.355098063006	2
0	5170	198225.205557771765	3
0	5172	198330.193548715528	2
0	5181	198501.630543186523	1
0	5185	198561.487201121915	2
0	5187	198726.485695538341	1
0	5191	199049.825294126986	0
0	5247	200431.413090194641	1
0	5249	200468.951594382929	2
0	5251	200534.26796803725	1
0	5255	200866.227376512679	2
0	5257	200946.12116013077	3
0	5259	200992.601717530518	2
0	5263	201003.799739241303	3
0	5270	201033.217370688709	2
0	5274	201668.592542848171	3
0	5276	201825.264092632654	2
0	5280	201854.178617296103	1
0	5284	201905.507051764756	0
0	5292	201973.110894279118	1
0	5299	202060.752214260193	0
0	5309	202344.499616216078	1
0	5311	202555.950716726276	0
0	5321	202748.217821850136	1
0	5332	203022.887499665204	0
0	5336	203171.1943881499	1
0	5338	203599.325504211062	2
0	5344	203709.323446703964	1
0	5348	203717.086726940963	0
0	5396	205554.558362453433	1
0	5398	205739.226698105106	0
0	5402	205768.593655399505	1
0	5404	205862.474650799265	0
0	5412	206227.650560832775	1
0	5419	206254.849249418295	0
0	5571	213696.500556805016	1
0	5573	213752.512099217098	2
0	5575	213879.804735192034	1
0	5579	213911.145052002512	0
0	5583	213948.512353648464	1
0	5585	214081.131754129269	0
0	5589	214081.999189031896	1
0	5591	214172.263277516637	0
0	5595	214213.754054781386	1
0	5597	214248.034380913917	2
0	5604	214579.934486230934	3
0	5606	214684.573660703145	2
0	5610	214707.842042417202	1
0	5614	214717.520694383822	2
0	5616	214871.336186002607	3
0	5618	214944.177982968408	4
0	5620	214973.61661174586	5
0	5622	215066.740880701403	4
0	5626	215100.658291251335	3
0	5630	215131.224742963054	2
0	5638	215310.438348631547	3
0	5640	215527.662121901058	2
0	5644	215665.79154101806	3
0	5646	215736.838747445944	4
0	5648	215796.611041966538	3
0	5657	215914.987944112096	2
0	5661	216078.358993099799	3
0	5663	216150.342453853928	2
0	5667	216465.459488021558	3
0	5669	216529.844162634649	2
0	5677	217159.471703478072	1
0	5686	217273.873978169404	0
0	5712	217869.861474278823	1
0	5714	217931.873613869799	0
0	5718	217961.123083263339	1
0	5720	218390.094947702649	2
0	5722	218408.964615845521	1
0	5726	218569.980018928511	2
0	5733	218769.02325781598	1
0	5737	218788.150745012587	0
0	5741	218966.547142423878	1
0	5747	219106.075499290069	0
0	5813	221788.58382235623	1
0	5819	221936.439385164106	2
0	5821	221960.471365424489	3
0	5823	222075.530851254333	2
0	5827	222277.354063980265	1
0	5831	222300.747065412255	0
0	5925	226238.80106707971	1
0	5927	226298.46248027319	0
0	5931	226544.948424831722	1
0	5933	226651.193081351326	0
0	5937	226773.030284851727	1
0	5944	227231.512062065698	0
0	6044	231291.439678754919	1
0	6055	231648.203013365222	0
0	6059	231785.018685628191	1
0	6061	231987.203445365642	0
0	6069	232126.213985287536	1
0	6071	232262.249439279413	2
0	6073	232269.39831252571	1
0	6077	232278.918273649395	0
0	6081	232553.353296912665	1
0	6088	232764.968640837377	2
0	6090	232803.793378745271	1
0	6094	233197.961228213489	2
0	6096	233228.164200836656	3
0	6098	233295.53549957949	2
0	6107	233363.570283086857	1
0	6111	233549.227039409791	0
0	6129	233973.407474549587	1
0	6131	234006.917555030415	2
0	6133	234093.257915689827	1
0	6137	234198.419660772321	2
0	6139	234412.389370738746	1
0	6148	234664.121938801419	2
0	6150	234776.312519578253	1
0	6154	234875.416244784257	0
0	6290	240985.544388878262	1
0	6292	241048.331929936013	0
0	6339	243438.598447365224	1
0	6346	243556.28651174096	2
0	6348	243611.791044056832	3
0	6350	243637.84910867715	4
0	6352	243648.975070528947	3
0	6356	244131.633160412879	4
0	6362	244301.335502056725	5
0	6364	244317.397459851843	6
0	6366	244365.439888949203	7
0	6368	244408.689544270214	6
0	6372	244410.00843271194	7
0	6374	244512.887829453989	8
0	6376	244627.299435237845	7
0	6380	244690.184982347068	6
0	6384	244840.629598865684	5
0	6388	244899.723883755766	4
0	6397	245012.902118641134	5
0	6399	245038.766439544459	4
0	6403	245255.991774158951	3
0	6407	245457.947212780317	2
0	6411	245467.655382044874	1
0	6419	245724.773672589479	2
0	6421	245847.885102654299	1
0	6425	245900.989744732555	0
0	6429	246007.702613947614	1
0	6431	246018.999711406707	2
0	6433	246080.375595296374	3
0	6435	246082.390573511911	4
0	6437	246123.997684272703	3
0	6441	246173.537233286093	4
0	6448	246645.985559246292	5
0	6450	246684.926790399118	6
0	6452	246727.33272759845	5
0	6456	246893.004525974654	4
0	6464	247050.669745619174	3
0	6473	247215.610460589132	2
0	6477	247440.958875845086	3
0	6479	247475.455356048819	2
0	6487	247712.005460957489	1
0	6491	247776.357880684312	0
0	6495	247987.647766156771	1
0	6502	248142.556588053075	2
0	6504	248266.298855357133	1
0	6508	248499.694262794031	2
0	6510	248718.597122425613	1
0	6518	248893.336815722548	0
0	6528	249217.240240148	1
0	6530	249401.661833899792	0
0	6572	250774.996795699392	1
0	6574	251208.220713255805	0
0	6578	251210.101342388985	1
0	6580	251410.835754576285	0
0	6711	256951.622367069719	1
0	6713	257133.071531350959	0
0	6717	257137.806454072496	1
0	6719	257151.31466689667	0
0	6723	257177.737031898232	1
0	6725	257241.258857142373	2
0	6732	257457.066244560954	3
0	6734	257658.029771341353	2
0	6742	257716.111315223623	1
0	6746	257762.874265211309	0
0	6750	258176.418474425931	1
0	6752	258348.993465398716	2
0	6754	258449.136117241888	1
0	6758	258603.528576749612	0
0	6783	259438.507362082793	1
0	6785	259665.422997917284	0
0	6860	262429.661867487095	1
0	6862	262573.154703542126	0
0	6902	263627.93710576687	1
0	6904	263685.774698397888	0
0	6947	265185.185411552953	1
0	6949	265185.404183791482	0
0	6990	266256.78821616715	1
0	6992	267064.613318752143	0
0	6996	267268.557332669752	1
0	7003	267320.346641753382	0
0	7062	269367.510847744658	1
0	7064	269532.773258540901	2
0	7066	269543.184561077044	1
0	7075	269749.354016998789	2
0	7077	269990.201813816853	1
0	7081	270124.641132751741	0
0	7100	270474.264371761992	1
0	7102	270690.37886583788	0
0	7154	273058.228182581622	1
0	7156	273076.954298131775	0
0	7170	273576.772933844479	1
0	7172	273727.172309967885	0
0	7176	273827.267527707683	1
0	7183	274045.822662143279	2
0	7185	274111.616194844853	1
0	7193	274344.644809541783	0
0	7209	274698.692452418436	1
0	7211	275074.002520330857	0
0	7220	275114.643504895845	1
0	7222	275964.982855943522	0
1	0	0	0
1	16	1575.699535061145	1
1	22	1954.966069384518	2
1	25	2113.534250453421	3
1	43	2934.877784692338	2
1	50	3245.705411964047	3
1	54	3282.252281638786	4
1	57	3590.488361599848	5
1	64	3743.432607538778	6
1	70	3920.962063698808	7
1	76	4283.622946066331	8
1	78	4557.888417935586	7
1	87	4656.660597561169	8
1	90	4787.923689641941	9
1	97	5168.341343991334	10
1	108	5659.977655199012	9
1	126	6226.547003732805	10
1	130	6298.612346344497	11
1	134	6756.914366597897	10
1	141	6768.116249508198	11
1	151	6951.4216638817	12
1	165	7318.427980886583	13
1	171	7330.662526219126	14
1	175	7392.078448005822	15
1	179	7438.647827775638	16
1	183	7710.087419536552	15
1	192	7860.425301538269	16
1	198	7982.562980272677	17
1	206	8191.091677630131	18
1	212	8592.812786707143	19
1	218	8750.856559975978	20
1	222	8765.80081534553	21
1	226	8869.413089760999	22
1	228	9126.993969783774	21
1	237	9207.911937675413	22
1	247	9659.939747669604	23
1	250	9805.198763915758	24
1	253	10369.179625241992	25
1	256	10385.130720967238	26
1	267	10686.167606946668	25
1	276	10907.37205150246	26
1	279	11045.01086078996	27
1	289	11117.001611024943	28
1	295	11201.346208217436	29
1	298	11663.745106559865	30
1	312	12152.337656079447	29
1	319	12173.274842411876	30
1	327	12583.138645075501	31
1	335	12711.793039836586	32
1	337	12841.99134174048	31
1	346	13176.702033925746	32
1	350	13183.354749008059	33
1	360	13334.844987772645	34
1	368	13534.672342090845	35
1	372	13625.629928231479	36
1	378	14008.125022388041	37
1	382	14036.528695770205	38
1	384	14163.039595040149	37
1	390	14437.222848731969	38
1	393	14637.456919462086	39
1	396	14852.426849983872	40
1	411	15334.729637645773	39
1	417	15374.300810619235	40
1	424	15968.526783699449	41
1	429	16015.79307996913	40
1	438	16368.300018270948	41
1	441	16440.286719381967	42
1	451	17052.052557974071	43
1	457	17165.645392306735	44
1	460	17289.474910639133	45
1	462	17407.059920162551	44
1	484	18759.945875901689	45
1	486	18776.335222527973	44
1	492	18837.365877179988	45
1	498	18957.572837947523	46
1	501	19323.405901446504	47
1	514	19809.078542713036	48
1	517	19813.414136725381	49
1	522	20254.214188738383	48
1	534	20386.770226051076	49
1	537	20436.453483580954	50
1	546	21046.186357590027	49
1	552	21131.151075481132	50
1	554	21650.904771697365	49
1	560	21774.946447114495	50
1	570	22007.317495820089	51
1	573	22013.171982479451	52
1	585	22527.754057368853	51
1	595	23214.528579375473	52
1	598	23270.173445909782	53
1	603	23390.414105730721	52
1	609	23390.851411347566	53
1	612	23610.400831794556	54
1	622	24024.30511606887	55
1	630	24249.645765426227	54
1	643	24647.857319220992	55
1	646	24980.058260998213	56
1	652	25342.140015233435	57
1	655	25550.84754661659	58
1	657	25783.938229961911	57
1	668	26475.716208315113	56
1	681	26592.039573030525	57
1	684	26688.36776967367	58
1	699	27708.771855004722	57
1	705	28046.964290863692	58
1	708	28071.148369530814	59
1	714	28239.399599736921	60
1	727	28423.508889211029	61
1	730	28755.436024803181	62
1	733	28850.447450009659	63
1	735	29298.249134377235	62
1	744	29674.847584436049	63
1	756	29989.595621333237	64
1	769	30539.679734955967	65
1	775	30569.663410611875	66
1	779	30909.965545034626	65
1	788	31117.971626247524	66
1	794	31275.792383986951	67
1	798	31461.664576066259	68
1	808	31713.978047800783	69
1	811	31778.15654798174	70
1	817	32066.682017274625	71
1	828	32526.752292302096	70
1	835	32530.682151672963	71
1	839	32534.05888686633	72
1	843	32720.826126681638	73
1	855	33333.564191443447	74
1	859	33548.841444397908	75
1	869	33970.202933384696	74
1	876	34181.592684301793	75
1	880	34322.477726126087	76
1	888	34347.036011984173	77
1	892	34448.4512162835	78
1	898	34641.530428300243	79
1	914	35368.36218240416	80
1	918	35450.973282290224	81
1	922	35617.000825202683	80
1	929	35736.632944317532	81
1	937	36025.237369346064	82
1	943	36299.973523365331	83
1	947	36586.728103148996	84
1	951	36661.533106436554	85
1	957	36748.867513025177	86
1	961	36910.232304718936	85
1	968	36927.771486783963	86
1	972	37137.469011049031	87
1	978	37230.026145299498	88
1	988	37580.802947613042	89
1	996	38301.566314791862	90
1	1000	38302.558287652207	91
1	1003	38329.99079684472	92
1	1005	38418.66150202475	91
1	1014	38661.318593467217	92
1	1017	38720.399277267579	93
1	1031	39578.203909353013	92
1	1038	39593.696335097341	93
1	1041	39703.064052121693	94
1	1044	39849.975327784193	95
1	1053	40668.240180912088	94
1	1059	40881.820041745328	95
1	1062	41105.657713589756	96
1	1072	41713.759025688985	97
1	1074	42343.820249394174	96
1	1087	42947.46709853483	97
1	1093	43091.148020680209	98
1	1101	43327.012471885081	97
1	1125	44557.94741017482	98
1	1129	44605.682795614197	99
1	1133	44608.431923168814	100
1	1137	44802.569786805639	101
1	1139	44869.874482324939	100
1	1164	45860.295457433081	101
1	1168	45900.005748245845	102
1	1172	45933.931504644647	103
1	1174	46172.926962936889	102
1	1181	46234.360029378149	103
1	1185	46296.916379042163	104
1	1191	46610.498503047953	105
1	1201	46943.02362748606	106
1	1211	47117.549629442587	107
1	1213	47199.299449103545	106
1	1222	47296.887891085062	107
1	1226	47407.162961217678	108
1	1230	47468.736929234097	109
1	1240	47706.559295773699	110
1	1244	48117.502601782895	111
1	1248	48210.970313858221	112
1	1256	48333.81921959779	113
1	1260	48409.208488541316	112
1	1267	48524.040651734091	113
1	1271	48635.759080618813	114
1	1281	48947.13519455118	115
1	1289	49607.177813912846	116
1	1295	49838.499711879704	117
1	1299	49846.13076682448	116
1	1308	50146.414197504714	117
1	1312	50149.745451922633	118
1	1320	50439.104238983224	119
1	1324	50696.641252160266	120
1	1330	50882.037065380428	121
1	1332	51118.739766667258	120
1	1341	51215.69525957872	121
1	1344	51316.292824524559	122
1	1347	51643.715281456903	123
1	1349	51740.572636828419	122
1	1359	51865.578950133155	123