version 2
run Iteration-43-20200521-09:53:18-4620
attr configname Iteration
attr datetime 20200521-09:53:18
attr experiment Iteration
attr inifile omnetpp.ini
attr iterationvars "$i=4, $j=8, $0=15-(4+8)"
attr iterationvarsf i=4,j=8,15-(4+8)-
attr measurement "$i=4, $j=8, $0=15-(4+8)"
attr network Network
attr processid 4620
attr repetition 0
attr replication #0
attr resultdir results
attr runnumber 43
attr seedset 43
itervar i 4
itervar j 8
param **.resourcePool.amount 4
param **.resourcePool1.amount 8
param **.resourcePool2.amount 15-(4+8)
param **.source.interArrivalTime exponential(6min)
param **.delay.delay uniform(4min,28min)
param **.delay1.delay uniform(10min,28min)
param **.delay2.delay uniform(4min,16min)
param **.allocate.resourceModuleName "\"Network.resourcePool\""
param **.allocate1.resourceModuleName "\"Network.resourcePool1\""
param **.allocate2.resourceModuleName "\"Network.resourcePool2\""
param **.deallocate.resourceModuleName "\"Network.resourcePool\""
param **.deallocate1.resourceModuleName "\"Network.resourcePool1\""
param **.deallocate2.resourceModuleName "\"Network.resourcePool2\""
param **.router.randomGateIndex "uniform(0, 1) > 0.2 ? 0 : 1"

vector 0 Network.allocate queueLength:vector ETV
attr interpolationmode sample-hold
attr title "queue length, vector"
vector 1 Network.allocate1 queueLength:vector ETV
attr interpolationmode sample-hold
attr title "queue length, vector"
vector 2 Network.allocate2 queueLength:vector ETV
attr interpolationmode sample-hold
attr title "queue length, vector"
vector 3 Network.sinkStat lifeTime:vector ETV
attr interpolationmode none
attr title "lifetime of arrived jobs, vector"
attr unit s
vector 4 Network.sink lifeTime:vector ETV
attr interpolationmode none
attr title "lifetime of arrived jobs, vector"
attr unit s
0	0	0	0
0	14	456.372517268291	1
0	16	723.365718293772	0
0	28	1072.800562723698	1
0	30	1099.4479488417	0
0	53	1475.232968396949	1
0	55	1702.511073916474	2
0	57	1723.595186121081	3
0	63	2075.478403657705	2
0	68	2077.513285525289	1
0	73	2200.523713510321	0
0	192	4575.656744744405	1
0	194	4757.575955766042	2
0	196	4836.866787026787	1
0	210	5074.211476730873	0
0	245	5909.65917311315	1
0	247	6160.364110016836	0
0	252	6266.410536694013	1
0	254	6335.862834516132	0
0	349	8527.725957104626	1
0	366	9099.534120866231	2
0	368	9111.829030688496	1
0	382	9282.804424208154	0
0	391	9483.656123465302	1
0	397	9773.422504084742	0
0	470	11519.814149388972	1
0	476	11718.672835806834	2
0	482	11984.283375001918	3
0	488	12228.185342991303	2
0	501	12669.221600702517	1
0	506	12887.069951313784	0
0	515	12961.562155567874	1
0	517	13038.567253136967	0
0	526	13301.722477728991	1
0	532	13657.03753282312	0
0	578	14936.379451038383	1
0	580	14975.65274672769	2
0	582	15052.920038329675	3
0	588	15138.914327784605	2
0	600	15271.257585184608	1
0	605	15295.401495820357	2
0	612	15321.480676619075	3
0	614	15350.353791935987	2
0	622	15443.288670829661	1
0	632	15591.682481069177	0
0	698	16901.842549573703	1
0	700	16940.586885411352	0
0	720	17314.21795422112	1
0	722	17316.859034773124	2
0	732	17546.113406960667	1
0	737	17640.583367940892	0
0	750	17685.109219831597	1
0	752	17731.437070007888	2
0	762	18012.363424308104	1
0	775	18206.76309870088	0
0	848	19771.458966513843	1
0	850	19797.637038960175	2
0	860	20125.376934286162	1
0	873	20292.665300783614	0
0	882	20334.333092228428	1
0	892	20513.925454268363	0
0	1089	26153.297160657745	1
0	1091	26558.350367818079	0
0	1141	27804.4420002781	1
0	1147	27943.259284172259	0
0	1156	28212.580818086877	1
0	1162	28507.906186931836	0
0	1460	36411.489467536196	1
0	1466	36476.647009756533	2
0	1468	36623.002911529051	1
0	1477	36720.696625125077	0
0	1519	37521.811816593918	1
0	1521	37657.292007890013	0
0	1656	41765.527134523661	1
0	1658	41822.058808697535	0
0	1663	41847.698695905869	1
0	1665	41982.085395415282	0
0	1956	50839.604598642135	1
0	1958	50920.79870103018	2
0	1960	50977.991601830714	1
0	1969	51637.450885624973	0
0	2030	53235.022865821095	1
0	2036	53346.409994099894	2
0	2038	53414.517348668401	1
0	2043	53474.916734942187	2
0	2045	53604.146603425168	1
0	2062	53968.426410482305	0
0	2153	55760.615983790329	1
0	2155	55802.117801165044	2
0	2161	55845.768527149541	1
0	2173	56155.563352437724	2
0	2180	56408.135325999553	1
0	2185	56417.36759709428	2
0	2190	56447.526876123628	3
0	2205	56762.629953750963	2
0	2210	56772.725630375935	3
0	2216	57124.079749286545	2
0	2221	57171.811959068157	3
0	2223	57236.71903281385	2
0	2228	57265.098575785143	1
0	2237	57409.792480282856	0
0	2242	57470.526459098304	1
0	2244	57483.970237364116	0
0	2249	57528.959184588159	1
0	2251	57595.111985153837	0
0	2256	57816.025142471142	1
0	2262	57944.816665845916	2
0	2264	57989.233648117758	3
0	2266	58001.355185376103	2
0	2286	58190.788574919649	3
0	2288	58195.732175585869	2
0	2293	58221.40038485882	3
0	2295	58269.31170899458	2
0	2305	58392.466605364663	1
0	2318	58614.722083383765	2
0	2320	58675.980978885288	1
0	2325	58708.257969905678	0
0	2341	59119.797220828693	1
0	2365	59544.864772187869	2
0	2372	59735.499725283677	1
0	2390	59820.701298155261	0
0	2400	60031.39307878439	1
0	2402	60055.580728671832	0
0	2468	61395.624011984492	1
0	2470	61405.783605517442	0
0	2664	66437.913050654616	1
0	2666	66601.144937875901	0
0	2686	67116.955145967892	1
0	2688	67130.223562956785	2
0	2698	67355.37734735846	1
0	2703	67491.582744062014	2
0	2713	67827.129266890314	1
0	2718	67980.800630361617	0
0	2856	72139.592458304787	1
0	2858	72379.762076390075	0
0	3111	79798.879106985211	1
0	3113	80133.343693653191	2
0	3115	80183.144344096325	1
0	3120	80258.841528167957	0
0	3154	80942.044524680023	1
0	3156	80980.32218659919	0
0	3161	81117.445402799197	1
0	3163	81197.03599807366	0
0	3194	81809.508864212747	1
0	3202	81984.422845693699	2
0	3214	82114.124334045712	3
0	3216	82117.53881233671	4
0	3224	82196.541773831915	3
0	3255	82702.704183650457	2
0	3260	82722.778096009305	3
0	3266	82840.833421550694	4
0	3268	82961.373257903825	3
0	3273	83008.861016659849	2
0	3282	83163.561868410723	1
0	3287	83215.827913027999	2
0	3293	83243.004755085777	1
0	3298	83271.320698364489	0
0	3325	83883.532238549596	1
0	3331	84028.971460889604	0
0	3367	84562.355137669067	1
0	3385	84925.91962122409	0
0	3621	90816.86712317828	1
0	3627	90837.152486522843	0
0	3632	90846.676977677575	1
0	3634	90889.86610816095	2
0	3636	90941.133716513567	1
0	3641	91111.76025944276	2
0	3647	91304.795137302393	3
0	3649	91445.191642656658	4
0	3651	91673.971273128622	3
0	3656	91838.364006099452	2
0	3661	91895.024223847342	1
0	3666	92118.865261685782	0
0	3689	92455.635603561437	1
0	3695	92596.589906573879	2
0	3701	92656.499549151983	3
0	3715	92994.101104091579	2
0	3724	93062.733947024047	3
0	3737	93261.879005122656	2
0	3742	93268.033484940165	1
0	3747	93333.021943611254	0
0	3752	93357.275794798181	1
0	3759	93443.476654120089	2
0	3761	93582.25375918747	1
0	3769	93628.145376932968	0
0	3779	93721.714058414416	1
0	3797	94045.10398396545	0
0	3810	94141.626632899782	1
0	3815	94453.683508548612	0
0	3840	94708.359612260925	1
0	3853	95044.354248841041	0
0	4276	110150.661172238257	1
0	4278	110160.083822712237	0
0	4332	111079.584984502193	1
0	4334	111172.444441229944	0
0	4637	119793.597520358474	1
0	4639	119797.382789721196	0
0	4756	122832.976029051891	1
0	4758	122886.40053394869	0
0	5221	135376.506281513388	1
0	5227	135494.495072811282	2
0	5237	135659.133678014326	1
0	5242	135899.075132176386	2
0	5248	135993.896087985612	1
0	5253	136031.216663633382	2
0	5255	136267.976475662995	1
0	5260	136298.101996364719	0
0	5409	140933.0116151082	1
0	5419	141180.666454398728	0
0	5547	144096.331289270904	1
0	5553	144227.386951413856	0
0	5562	144457.533201706528	1
0	5564	144732.53741022657	0
0	5618	145751.809783055065	1
0	5624	145811.852399743317	2
0	5634	145947.867195424543	1
0	5639	146052.997803125035	2
0	5641	146071.09100435423	1
0	5650	146230.952429094085	0
0	5681	146771.488587753892	1
0	5691	147174.188019086342	2
0	5697	147259.150194594322	3
0	5707	147499.191452315968	2
0	5716	147555.895449855367	1
0	5721	147641.293012430242	0
0	5726	147654.283759950712	1
0	5728	147700.497744486401	0
0	5733	147732.437560700316	1
0	5739	147808.637248440605	0
0	5983	153858.477248981571	1
0	5985	153863.202252512861	0
0	6185	159033.550394290191	1
0	6191	159137.19406032972	0
0	6200	159227.546942861181	1
0	6202	159643.710895888515	0
0	6317	162334.655744023427	1
0	6323	162438.438296139357	2
0	6333	162580.202493873394	3
0	6335	162682.554272885649	2
0	6340	162865.269648247097	1
0	6345	162866.764052031696	2
0	6347	163017.861536219739	3
0	6349	163164.106177705382	4
0	6351	163220.231404021331	3
0	6356	163334.85435012791	2
0	6361	163359.493544089823	1
0	6366	163379.141136570618	0
0	6378	163929.408201573338	1
0	6384	163995.616499796458	0
0	6452	164995.464025739407	1
0	6457	165040.177485633499	2
0	6477	165403.399898840586	1
0	6482	165558.788930900343	0
0	6518	166085.569383552087	1
0	6520	166208.166859947093	0
0	6642	168782.94390047253	1
0	6648	169009.174025675885	2
0	6650	169083.040505330463	1
0	6655	169249.076513608019	0
0	6796	172372.884292240061	1
0	6814	173014.417546561096	0
0	6819	173073.447689450589	1
0	6821	173087.530225453388	0
0	6834	173388.325105519408	1
0	6836	173406.693720508067	0
0	6859	173941.476969929382	1
0	6861	173984.011863049986	2
0	6863	174044.189570715759	1
0	6872	174227.093382737961	2
0	6874	174234.246422026169	1
0	6883	174268.42261370649	0
0	6899	174650.887562415183	1
0	6901	174763.795678822432	0
0	6926	175005.17552585351	1
0	6928	175041.893596760369	2
0	6934	175133.675325775042	1
0	6947	175375.63928178589	2
0	6949	175458.769491698456	1
0	6957	175527.347831544994	2
0	6972	175829.408018199835	1
0	6977	175840.044797141155	0
0	6986	175958.721838498987	1
0	7000	176032.685689437749	2
0	7006	176171.035422023249	1
0	7011	176207.084157560875	2
0	7021	176618.046009104562	1
0	7030	176662.930409427782	0
0	7035	176794.877991667365	1
0	7037	176809.930502997234	0
0	7042	176857.804196924162	1
0	7048	177013.605053333674	0
0	7057	177106.307825040779	1
0	7059	177108.194121794298	0
0	7080	177444.503696797523	1
0	7082	177456.054271724125	0
0	7087	177504.545205317066	1
0	7089	177600.048627542861	2
0	7091	177660.779144860938	3
0	7093	177700.35451971133	2
0	7101	177743.17384089583	3
0	7103	177757.028914483396	4
0	7108	177832.907559800943	3
0	7113	177860.661358099294	2
0	7136	178252.55301803728	1
0	7141	178378.264175220537	2
0	7143	178441.112331328583	3
0	7157	178552.086560854655	4
0	7163	178635.750399327014	3
0	7174	178883.406525181129	2
0	7187	179241.11893301071	1
0	7192	179269.241236580644	0
0	7215	179474.210405667516	1
0	7217	179721.899681989154	0
0	7225	179813.47978829291	1
0	7230	179908.685774200879	2
0	7242	180060.037480184331	1
0	7247	180083.101568696105	2
0	7253	180149.03647011343	1
0	7258	180210.97781733056	0
0	7305	181258.984084977477	1
0	7311	181341.172388507459	2
0	7320	181453.270333636603	1
0	7330	181780.876240825389	0
0	7377	182602.063453005689	1
0	7383	182720.441355783543	0
0	7388	182780.259677885647	1
0	7390	182805.226236788664	0
0	7407	183417.796168958066	1
0	7413	183706.989685583399	0
0	7459	184569.96498837295	1
0	7461	184741.196241172018	0
0	7569	187281.971143043504	1
0	7575	187400.661160355622	0
0	7580	187405.501570131493	1
0	7582	187450.667925995452	2
0	7584	187747.630609366757	3
0	7586	187781.180846350988	4
0	7592	187985.859672382824	3
0	7597	188026.854097141141	2
0	7606	188128.300174119441	3
0	7612	188286.215833692347	2
0	7617	188302.408033928579	1
0	7622	188383.59030835401	2
0	7624	188509.228340231232	1
0	7637	188797.278092012159	0
0	7642	188825.228139754736	1
0	7648	188876.272284775998	2
0	7650	188889.464548385238	1
0	7655	188990.006339720812	2
0	7657	188995.835748953933	1
0	7670	189120.995300992137	0
0	7675	189165.727185655157	1
0	7677	189199.604449125613	2
0	7689	189579.330358102634	3
0	7691	189604.295779030435	4
0	7701	189705.575193113363	5
0	7711	189828.981994862541	6
0	7716	189879.14332658658	5
0	7726	189999.724654263074	4
0	7741	190274.680976599805	3
0	7750	190449.462476594377	4
0	7752	190485.285678676075	3
0	7757	190544.83738914139	4
0	7771	190811.618659405715	3
0	7776	191069.395404139345	4
0	7789	191294.392622529065	3
0	7799	191533.517637668366	2
0	7804	191565.377809314735	1
0	7817	191836.277763463907	0
0	7822	191850.546363416004	1
0	7836	192097.799113571994	0
0	7841	192196.140394698351	1
0	7843	192210.444475550526	2
0	7845	192214.749100229449	1
0	7854	192442.764959775262	0
0	7969	194619.407441564722	1
0	7971	194692.439069278603	0
0	8168	200052.306377222544	1
0	8170	200055.770364517662	0
0	8477	209110.500727374569	1
0	8479	209280.749921946139	0
0	8584	211950.18106461182	1
0	8591	212178.400643991834	2
0	8593	212392.652153697211	3
0	8595	212408.906781737875	4
0	8597	212455.616863834233	3
0	8610	212680.280536025095	4
0	8616	212720.042320635021	5
0	8622	212985.321212719451	4
0	8627	213077.415009195478	3
0	8632	213108.820514117959	4
0	8638	213178.470071945406	3
0	8643	213210.313162985159	4
0	8645	213292.816135160276	5
0	8655	213584.107031227677	4
0	8660	213646.037618688968	5
0	8666	213691.077548861095	6
0	8668	213694.58986138788	5
0	8673	213761.469679556403	6
0	8675	213860.280298778443	5
0	8688	214158.028351832248	4
0	8697	214386.432312700223	3
0	8710	214678.754445375081	4
0	8712	214694.835687958048	5
0	8714	214847.514458039431	4
0	8735	215195.234688828956	3
0	8740	215199.757886061938	2
0	8749	215282.077970970489	1
0	8758	215396.446849420655	2
0	8760	215642.717161068348	1
0	8785	216148.19429952803	0
0	8904	219065.674644560766	1
0	8910	219075.7980810959	0
0	9033	222093.697773864194	1
0	9035	222124.716923954647	0
0	9091	223234.272452313692	1
0	9097	223492.691249021002	2
0	9099	223521.785611432518	3
0	9101	223595.590514496867	2
0	9106	223599.895681923298	3
0	9108	223647.322707260709	2
0	9129	223858.535233842219	1
0	9134	223968.027356820708	2
0	9136	224153.522897521715	1
0	9149	224392.503993879161	0
0	9210	225563.28944073391	1
0	9216	225713.99116067236	2
0	9222	225776.201424075056	1
0	9227	225808.829349191514	0
0	9235	226002.606981913423	1
0	9237	226106.313159673826	0
0	9377	229176.776096931177	1
0	9387	229598.084140186853	0
0	9392	229660.453771606532	1
0	9394	229681.703032464627	0
0	9399	229851.207689577031	1
0	9401	229916.629635022612	0
0	9538	233559.108502137461	1
0	9544	233741.20712387047	2
0	9546	233848.793235232243	1
0	9551	233936.762784778982	2
0	9553	234050.678496831057	1
0	9558	234271.633379930638	2
0	9564	234414.930237023887	3
0	9570	234567.218539090421	2
0	9579	234725.488260167029	3
0	9581	234727.405164477987	4
0	9583	234738.978320403425	3
0	9588	235145.164965116379	2
0	9605	235476.260291111776	1
0	9610	235574.038018068699	0
0	9703	237835.378761159014	1
0	9709	238039.426673108739	0
0	9718	238373.24019652974	1
0	9724	238446.390767905347	0
0	9980	245058.867473902439	1
0	9986	245211.886744297453	0
0	9991	245353.487985032779	1
0	9993	245522.353179473227	0
0	10006	245760.629301789022	1
0	10008	246094.023324425685	0
0	10013	246122.660007322677	1
0	10019	246326.409824247006	0
0	10164	249511.710603396559	1
0	10170	249726.076992403007	0
0	10175	249836.869160822058	1
0	10177	249844.058883372472	0
0	10248	251318.720192143045	1
0	10250	251332.304508404026	2
0	10255	251376.065900690696	3
0	10267	251510.438262229585	4
0	10277	251683.168588127781	3
0	10282	251951.210508995703	2
0	10287	251964.298515311788	1
0	10308	252454.8091256061	0
0	10313	252466.907140623605	1
0	10315	252618.731696601797	0
0	10328	252687.480149472092	1
0	10330	252731.945677626551	2
0	10336	252825.142930722364	3
0	10338	252851.949457592677	2
0	10343	253213.700754211298	1
0	10348	253265.761556509722	0
0	10372	253922.354813700883	1
0	10374	253931.258172411684	2
0	10384	254016.786573106078	3
0	10394	254219.834408409443	2
0	10403	254412.619370581757	3
0	10409	254428.260711348962	2
0	10426	254678.07204253583	1
0	10431	254807.537146387747	2
0	10437	254845.389129982344	1
0	10450	254990.071502473045	0
0	10785	260980.125979246165	1
0	10787	260998.672603015684	2
0	10792	261131.16458334239	1
0	10810	261620.15647254422	2
0	10812	261724.935551076009	1
0	10825	261880.413515508151	0
0	10830	261896.820474248722	1
0	10836	262076.959169546382	0
0	10849	262248.193456288848	1
0	10855	262306.258099559748	0
0	10871	262749.292424912934	1
0	10873	262848.715134798362	0
0	10886	263025.709320445772	1
0	10888	263033.975130931194	2
0	10894	263113.38304367578	3
0	10900	263386.206548396551	2
0	10917	263668.336376338079	1
0	10922	263721.604905801134	0
0	10938	264076.443232381537	1
0	10943	264165.193186627941	0
0	11042	266484.340648871049	1
0	11044	266598.228527985051	2
0	11046	266747.7179409078	1
0	11051	266758.409318871382	2
0	11057	266950.707882627791	3
0	11059	266988.100202404709	2
0	11068	267419.186418045124	3
0	11070	267537.456131569664	4
0	11072	267548.738448621064	3
0	11081	267741.22066895557	2
0	11086	267750.85135010598	3
0	11092	267847.993248578036	2
0	11097	268308.30223510489	1
0	11106	268406.362764156288	0
0	11115	268529.015549711292	1
0	11125	268814.800171108408	2
0	11127	268834.166910798579	1
0	11136	268909.108410633349	2
0	11138	268968.413721237207	1
0	11143	268997.659036689253	0
0	11148	269184.116116869073	1
0	11150	269242.123405135268	2
0	11156	269294.447954249069	3
0	11161	269320.158430782567	4
0	11163	269385.455358349533	3
0	11171	269449.685800533495	4
0	11178	269537.651603430235	5
0	11180	269639.636969735024	6
0	11190	269875.870901779087	5
0	11200	269956.741575254923	4
0	11208	270099.95581403191	5
0	11215	270194.274106585711	4
0	11228	270430.485104795421	3
0	11233	270477.421064143545	4
0	11243	270552.697338484974	3
0	11248	270574.316092298778	4
0	11258	271000.064734584516	3
0	11279	271411.39283668372	2
0	11284	271453.035769992752	3
0	11286	271469.399605789037	2
0	11295	271656.937005955602	1
0	11304	271676.71372991469	2
0	11306	271821.696536180843	3
0	11308	271827.332764823603	4
0	11310	271902.634382457288	3
0	11334	272465.913347349949	4
0	11339	272628.367506108111	3
0	11355	272878.987434305998	2
0	11365	272945.889891238242	1
0	11370	273029.356017213191	0
0	11477	275051.327975197989	1
0	11483	275251.616451629508	0
0	11492	275396.20173419203	1
0	11494	275398.456218649654	0
1	0	0	0
1	2327	58708.257969905678	1
1	2329	58771.944291413817	0
1	3337	84097.192376893179	1
1	3339	84115.174961328949	0
2	0	0	0
2	126	3141.907906886028	1
2	132	3263.670617585751	0
2	179	4334.531530862821	1
2	182	4348.455666716118	2
2	184	4409.801073465334	1
2	201	4893.832747488104	0
2	284	7093.282205207964	1
2	293	7239.079877908493	0
2	302	7489.096694935	1
2	304	7704.822688789258	0
2	364	8938.452469514324	1
2	373	9165.993354365133	0
2	598	15156.324815110813	1
2	607	15308.022156441544	0
2	620	15385.548829528057	1
2	627	15486.67536954326	0
2	684	16789.400791897125	1
2	690	16846.349299703888	0
2	706	17215.042539783917	1
2	708	17235.003067497123	0
2	1387	33926.965349656009	1
2	1389	34083.443106160559	0
2	1551	38238.139268431867	1
2	1553	38443.47038167763	0
2	1571	38816.935133478119	1
2	1573	38917.395946572082	0
2	1713	43529.062098382941	1
2	1716	43534.953147705575	2
2	1726	43594.295856204031	1
2	1735	43751.888237532166	2
2	1737	43795.936144791691	1
2	1745	44060.035735122192	0
2	1793	45237.719688206739	1
2	1795	45284.378458483304	0
2	2013	52890.857417550555	1
2	2021	53157.146642963313	0
2	2129	55412.710189153576	1
2	2131	55574.156653425697	0
2	2140	55625.017841263714	1
2	2145	55718.392979911392	0
2	2171	56021.326112950818	1
2	2175	56346.210551210254	0
2	2188	56429.856514110227	1
2	2192	56499.137861038422	0
2	2284	58091.942787813393	1
2	2300	58369.560603481156	0
2	2311	58484.263071961088	1
2	2313	58531.414015337447	0
2	2331	58771.944291413817	1
2	2333	58783.831845929469	0
2	2339	58841.27151708031	1
2	2343	59130.273724466185	0
2	2349	59233.405162741749	1
2	2351	59264.700256064904	0
2	2357	59436.095195019241	1
2	2360	59445.494307292012	2
2	2363	59535.515925231445	3
2	2367	59557.616138511892	2
2	2378	59759.833487086368	3
2	2380	59796.104822165887	2
2	2385	59820.498413071406	1
2	2395	59920.509419662501	0
2	2420	60394.389813057202	1
2	2423	60562.205231394989	2
2	2425	60565.725429353859	1
2	2430	60667.222342715037	0
2	2544	63115.931317310403	1
2	2547	63148.724528343171	2
2	2553	63242.914658695326	1
2	2559	63285.313851079434	2
2	2565	63591.630646204947	1
2	2570	63686.579627537487	0
2	2778	69655.492295450148	1
2	2780	69756.623352135751	0
2	3197	81896.014136779376	1
2	3200	81904.007310049617	2
2	3204	81999.066436565735	1
2	3209	82013.644913865263	0
2	3219	82170.909099742037	1
2	3222	82191.864436600993	2
2	3230	82315.721475404392	3
2	3232	82335.146024075808	2
2	3237	82408.340874725962	1
2	3243	82577.245826510663	2
2	3245	82578.744576699354	1
2	3250	82668.503977262886	0
2	3349	84254.67045998279	1
2	3351	84285.942478529432	0
2	3395	84977.000241964379	1
2	3401	85099.205893847012	0
2	3407	85244.236587496917	1
2	3409	85352.194665620547	0
2	3704	92738.35710451261	1
2	3706	92889.880754142229	0
2	3735	93221.109767265645	1
2	3754	93425.796742204604	0
2	3767	93602.920417802134	1
2	3774	93709.18874971119	0
2	3813	94447.058511374245	1
2	3821	94458.602199494068	2
2	3823	94475.80066705791	1
2	3828	94654.524745999583	0
2	3843	94723.686394181782	1
2	3845	94855.154923512761	0
2	3851	94857.999145156528	1
2	3862	95129.949112946847	0
2	3915	96413.706052752891	1
2	3917	96539.08726451994	0
2	3929	96759.005647876647	1
2	3931	96819.126323983828	0
2	4311	110793.455344328592	1
2	4313	110810.369777675588	0
2	4319	110863.217257383693	1
2	4325	110897.532069758946	2
2	4327	110928.637541690852	1
2	4347	111326.183773599907	0
2	4397	112300.619395745916	1
2	4399	112367.300889869129	0
2	4698	121403.596859754107	1
2	4704	121555.560234209007	2
2	4710	121676.786338786648	1
2	4719	121693.512685221709	0
2	4725	121991.646702896337	1
2	4727	121998.369995766734	0
2	4803	123882.612957619527	1
2	4809	124023.101664175155	0
2	4818	124071.722260031805	1
2	4826	124376.54208873293	0
2	4836	124416.486052258056	1
2	4838	124510.609738627008	0
2	4901	126464.280303761861	1
2	4911	126691.556777503938	0
2	4926	126822.867343370704	1
2	4928	126853.906551610557	0
2	5002	128950.814014019607	1
2	5004	129110.587309074514	0
2	5130	132673.286733466583	1
2	5133	132727.119440256822	2
2	5135	132735.601216593938	1
2	5140	132876.281739371265	0
2	5309	137366.872486181069	1
2	5312	137396.459109922997	2
2	5314	137453.741127959005	1
2	5324	137587.957494952432	2
2	5327	137614.615904168162	3
2	5330	137625.413779290519	4
2	5332	137635.513560214016	3
2	5337	137975.239430312935	2
2	5342	138023.949192927663	1
2	5354	138195.069258258518	2
2	5356	138218.746026063822	1
2	5361	138299.731815514091	0
2	5745	147833.462719499298	1
2	5747	148008.216341794388	0
2	5796	149096.693799528253	1
2	5801	149248.088749493431	0
2	5807	149258.327122568435	1
2	5809	149371.023125826384	0
2	5830	149634.81468122015	1
2	5832	149708.306466373574	0
2	5838	149726.416112345377	1
2	5840	150039.094804312105	0
2	5846	150074.638568670449	1
2	5848	150200.259529291611	0
2	6036	155132.242399727989	1
2	6038	155206.693653846956	0
2	6413	164502.479909398292	1
2	6416	164511.861528348893	2
2	6418	164573.900445119693	1
2	6427	164646.983918566887	0
2	6433	164647.122236857906	1
2	6436	164691.294125519642	2
2	6444	164912.970752489968	1
2	6455	164998.30993163953	2
2	6460	165106.660309089978	3
2	6462	165144.274589668243	2
2	6467	165244.434788022821	1
2	6472	165324.491421764	0
2	6511	165976.03313858363	1
2	6513	166080.117835421746	0
2	6542	166498.681446933866	1
2	6544	166549.454717902377	0
2	6550	166637.323820717581	1
2	6563	166883.426200278051	2
2	6565	166904.663020615166	1
2	6570	167201.073601471732	0
2	6940	175206.811606220601	1
2	6942	175303.761773394734	0
2	6955	175471.525700571066	1
2	6960	175601.961972491678	2
2	6962	175622.649244328661	1
2	6967	175745.969919759888	0
2	6993	176021.461912311137	1
2	6995	176032.406455084789	0
2	7099	177739.398873133693	1
2	7106	177812.801282947746	2
2	7118	177971.257734749516	1
2	7123	177986.461210617846	0
2	7146	178445.296222084656	1
2	7148	178506.042936429431	0
2	7169	178682.935018755018	1
2	7172	178882.618594192018	2
2	7180	178955.796610092794	3
2	7182	179058.06133954027	2
2	7197	179312.065574165297	1
2	7202	179327.781362237272	0
2	7223	179787.430037578091	1
2	7228	179901.456970147839	2
2	7232	179984.43679704528	1
2	7237	180042.450717633453	0
2	7280	180784.91016587381	1
2	7283	180810.33232263667	2
2	7289	180874.34339949127	1
2	7294	181042.321088055012	0
2	7318	181413.995152117792	1
2	7325	181738.037605054785	0
2	7517	185910.727700635778	1
2	7527	186039.96979997871	0
2	7684	189498.838072533138	1
2	7687	189562.014480006417	2
2	7694	189694.221277270933	3
2	7696	189695.945220623354	2
2	7704	189726.745598309092	3
2	7706	189752.89044596476	2
2	7714	189854.423760712335	3
2	7721	189904.297194585881	2
2	7731	190031.106183208714	1
2	7736	190198.388630387119	0
2	7787	191183.767696295284	1
2	7794	191424.723288614979	0
2	7880	192836.248182036171	1
2	7882	192947.730953680819	0
2	7896	193067.641182590954	1
2	7902	193193.387596538758	0
2	7924	193838.084546292551	1
2	7926	193966.712653195953	0
2	7956	194391.182181943676	1
2	7962	194515.2410254746	2
2	7964	194600.881411402023	1
2	7976	194723.157196392051	0
2	8079	197371.596633825516	1
2	8081	197442.793841751516	0
2	8087	197562.084677659416	1
2	8093	197796.112339336936	0
2	8195	200408.433266291064	1
2	8197	200420.518316931326	0
2	8203	200467.264505833127	1
2	8213	200737.221673835151	0
2	8219	200795.034400933988	1
2	8222	200850.810484336747	2
2	8224	200931.894669377711	1
2	8229	201179.911908799317	0
2	8264	201821.180207833964	1
2	8266	201823.750484635588	0
2	8418	206872.608416081414	1
2	8420	206994.37191395269	0
2	8579	211863.482962587865	1
2	8586	212142.51999227283	0
2	8603	212457.430334489228	1
2	8605	212511.422311941447	0
2	8950	220059.292425245061	1
2	8952	220076.038053903937	0
2	9031	221983.854369131487	1
2	9040	222212.666287826004	0
2	9233	225853.162503718148	1
2	9242	226128.816557601776	0
2	9248	226222.681491453211	1
2	9250	226271.016760147265	0
2	9338	227975.885833532901	1
2	9340	228138.08032463095	0
2	9476	232053.795866658635	1
2	9478	232169.896134602353	0
2	9673	237117.320599625778	1
2	9675	237230.57290611319	0
2	9681	237436.204807065828	1
2	9684	237477.774357758056	2
2	9686	237604.888755825469	1
2	9694	237793.59160298012	0
2	9814	240669.83869576589	1
2	9817	240767.129799128617	2
2	9819	240798.149353920442	1
2	9824	241067.921555808705	0
2	10090	247981.459766960237	1
2	10096	248164.406389420264	0
2	10105	248267.502950092199	1
2	10110	248458.097708055171	0
2	10116	248482.710476171691	1
2	10125	248645.07084210717	0
2	10131	248715.218999064815	1
2	10137	248807.536282231828	0
2	10239	251205.647947995791	1
2	10253	251360.944004695819	2
2	10257	251380.23332671189	1
2	10262	251499.547465886699	0
2	10293	252068.170848588682	1
2	10295	252261.851769023773	0
2	10443	254868.064359003518	1
2	10445	254879.730529552455	0
2	10502	256035.440184281689	1
2	10507	256088.184180358264	0
2	10555	256911.683751798249	1
2	10564	256998.173167352912	0
2	10716	260025.066473919387	1
2	10729	260236.062510567282	2
2	10731	260244.601424743597	1
2	10740	260385.014932348278	0
2	10790	261126.236623305183	1
2	10797	261325.509256782827	0
2	10910	263587.706982554921	1
2	10912	263602.891434090956	0
2	10928	263786.397410348034	1
2	10930	263945.596060860879	0
2	10936	264035.8573889032	1
2	10941	264127.15181362448	2
2	10948	264222.18332234049	1
2	10957	264432.307378086074	0
2	10987	264979.016132014617	1
2	10989	265098.233920684828	0
2	11159	269295.014324428389	1
2	11169	269430.097242067383	2
2	11173	269460.349355186151	1
2	11183	269765.999283077942	2
2	11185	269816.325603407672	1
2	11195	269951.4625514064	0
2	11206	270057.258439713964	1
2	11210	270152.560560368797	0
2	11332	272190.855864821748	1
2	11337	272472.920614966482	2
2	11345	272666.221561436357	3
2	11347	272775.652663242867	2
2	11353	272840.292746450628	3
2	11360	272914.971326671416	2
2	11375	273054.563005226479	1
2	11380	273191.594101470759	0
2	11386	273253.794048187187	1
2	11400	273617.179685149217	0
2	11429	274079.291177030012	1
2	11437	274325.030207750204	0
2	11462	274704.666666361794	1
2	11465	274912.091414551066	2
2	11467	274935.125050232562	1
2	11472	274995.667478312603	0
3	61	1928.450389634655	1637.1676652133
3	92	2547.084269907647	1474.2837071839
3	100	2597.8017159614	2267.4214090593
3	111	2881.288322463954	2492.9206109885
3	135	3263.670617585751	3219.6680733003
3	147	3783.301185645194	2727.0963688195
3	151	3812.48671077353	3356.1141935052
3	159	4042.133341146779	2570.9864725079
3	187	4409.801073465334	2686.2058873443
3	204	4893.832747488104	3480.0795751344
3	208	4897.698865249783	3422.4658968528
3	221	5243.633806686686	3541.1227327702
3	239	5827.498348484569	2989.5715959984
3	261	6336.064903490238	2106.3801953662
3	273	6480.618369641473	2252.7850526199
3	296	7239.079877908493	3120.7674089447
3	307	7704.822688789258	3129.1659440449
3	322	7914.561824320967	3156.9858685549
3	329	8013.339777992679	3501.5896238387
3	341	8213.193312191556	2594.0665736285
3	380	9171.485360242882	3492.3840929009
3	395	9711.661843626911	3445.2513069329
3	404	9847.032302316265	2478.8391824719
3	424	10068.036414652966	4158.3772415398
3	443	10894.448792463665	2968.8902186695
3	486	12055.657888681906	3607.8864705004
3	495	12637.51943591473	3537.9853150485
3	513	12943.659213621727	3460.0030901564
3	543	13794.672136017358	2465.9864361864
3	551	13955.513929206456	3306.5615109075
3	566	14257.4092817479	3180.6691682898
3	610	15308.022156441544	3899.6432637423
3	630	15486.67536954326	3502.3919945413
3	647	15929.999115661955	4211.3262798551
3	651	16063.181499252056	4543.3673498631
3	693	16846.349299703888	1909.9698486655
3	711	17235.003067497123	3933.2805897681
3	726	17435.323570096097	2963.3400542908
3	730	17527.913704972774	3451.9264955074
3	748	17649.172658733983	2353.7711629136
3	769	18045.131348634199	2723.6506720151
3	773	18179.324827034644	3126.404788705
3	790	18719.708864092786	3744.0561173651
3	806	19026.968217805881	2502.7785382234
3	817	19166.528238078639	2264.6856885049
3	854	19961.175734433322	2687.1414888091
3	867	20160.651376198483	3308.2240319811
3	880	20310.042469675575	2993.1834349025
3	886	20373.609758070647	2642.1726880628
3	926	21308.07887966509	3622.9696598335
3	941	21921.375066065142	2708.8899707235
3	949	22068.595610544929	2270.9585715848