version 2
run Iteration-1-20200521-09:50:57-68996
attr configname Iteration
attr datetime 20200521-09:50:57
attr experiment Iteration
attr inifile omnetpp.ini
attr iterationvars "$i=1, $j=2, $0=15-(1+2)"
attr iterationvarsf i=1,j=2,15-(1+2)-
attr measurement "$i=1, $j=2, $0=15-(1+2)"
attr network Network
attr processid 68996
attr repetition 0
attr replication #0
attr resultdir results
attr runnumber 1
attr seedset 1
itervar i 1
itervar j 2
param **.resourcePool.amount 1
param **.resourcePool1.amount 2
param **.resourcePool2.amount 15-(1+2)
param **.source.interArrivalTime exponential(6min)
param **.delay.delay uniform(4min,28min)
param **.delay1.delay uniform(10min,28min)
param **.delay2.delay uniform(4min,16min)
param **.allocate.resourceModuleName "\"Network.resourcePool\""
param **.allocate1.resourceModuleName "\"Network.resourcePool1\""
param **.allocate2.resourceModuleName "\"Network.resourcePool2\""
param **.deallocate.resourceModuleName "\"Network.resourcePool\""
param **.deallocate1.resourceModuleName "\"Network.resourcePool1\""
param **.deallocate2.resourceModuleName "\"Network.resourcePool2\""
param **.router.randomGateIndex "uniform(0, 1) > 0.2 ? 0 : 1"

vector 0 Network.allocate queueLength:vector ETV
attr interpolationmode sample-hold
attr title "queue length, vector"
vector 1 Network.allocate1 queueLength:vector ETV
attr interpolationmode sample-hold
attr title "queue length, vector"
vector 2 Network.allocate2 queueLength:vector ETV
attr interpolationmode sample-hold
attr title "queue length, vector"
vector 3 Network.sinkStat lifeTime:vector ETV
attr interpolationmode none
attr title "lifetime of arrived jobs, vector"
attr unit s
vector 4 Network.sink lifeTime:vector ETV
attr interpolationmode none
attr title "lifetime of arrived jobs, vector"
attr unit s
0	0	0	0
0	12	2308.480227041676	1
0	14	2438.084816269798	2
0	16	2732.938252289655	1
0	25	3184.26673756248	0
0	65	5613.982479784496	1
0	67	5783.406067148944	0
0	72	5881.638768428625	1
0	74	6317.817305692633	0
0	79	6639.329795088276	1
0	85	6888.408502557476	0
0	90	6914.534765970647	1
0	96	7134.503121933607	2
0	98	7337.307405216632	3
0	100	7391.765655578495	4
0	114	8399.397955640551	5
0	116	8444.513814815481	4
0	125	8852.521751663641	5
0	127	8887.583317748573	6
0	129	9311.916578664402	7
0	131	9574.762552513059	8
0	137	10078.810478256245	7
0	142	10327.384644778443	8
0	144	10359.381275071251	9
0	150	10996.44678289513	10
0	152	11111.249900348572	11
0	154	11178.255004373564	12
0	156	11200.240426912305	13
0	162	11607.044074193736	12
0	167	11958.005501379199	13
0	169	11988.663518608709	12
0	174	12154.795430530521	13
0	180	12345.83578311258	14
0	182	12425.067047210333	15
0	188	12848.879419941199	16
0	190	12985.351630727124	17
0	192	13040.536464295625	18
0	194	13195.8454106312	17
0	203	13458.121656891364	18
0	205	13464.766384971152	19
0	207	13477.283152993468	20
0	213	13976.556992841914	21
0	219	14563.818251074454	20
0	236	15595.588833449173	21
0	238	15686.016821440658	22
0	240	15725.23933015363	23
0	242	15752.669401654718	24
0	244	15881.17679152002	23
0	249	15966.514571609081	24
0	251	16002.916507537539	25
0	253	16128.050222082407	26
0	259	16796.880267218849	25
0	264	16969.322630052771	26
0	266	17208.946549439034	25
0	270	17237.169186574493	26
0	272	17268.607062354697	27
0	279	17476.834969551465	26
0	288	17677.495753959495	27
0	294	17921.011975432998	28
0	296	17940.754049173789	29
0	302	18241.176953009379	30
0	308	18583.809878087802	31
0	314	19027.880636484525	30
0	327	19643.690369681618	29
0	332	19712.703069132439	30
0	338	20651.856199422083	29
0	347	20790.721524822204	30
0	349	20809.1694745801	31
0	359	21331.25450095378	32
0	361	21601.862014041445	31
0	370	21723.666431900227	32
0	372	22043.413227194152	31
0	377	22326.327185736201	30
0	390	22765.175620312657	31
0	392	22979.077300151414	32
0	394	23033.070741815126	33
0	408	23834.748580762	34
0	410	23838.027864911757	33
0	419	24113.068203521745	34
0	421	24274.441585882638	35
0	423	24316.137904108666	34
0	428	24428.288187042831	35
0	430	24793.925590020098	36
0	440	25259.988727919173	37
0	442	25378.390233547591	36
0	447	25681.852267649524	37
0	457	26182.277911664603	38
0	463	26516.478210457765	37
0	472	26700.92234643655	38
0	474	26902.081607038761	39
0	476	27269.883882769548	38
0	485	27669.424642472295	39
0	491	27917.598725429142	40
0	493	27945.195050819677	41
0	495	27989.072079593639	42
0	501	28545.716793793059	43
0	503	28569.55301860751	44
0	509	28784.716830633022	45
0	511	28899.253553555512	44
0	520	29095.639338011866	45
0	522	29193.031075250881	46
0	524	29711.199928404452	47
0	530	30495.498758399093	46
0	535	30552.507153855209	47
0	537	30553.541956592506	48
0	543	31086.938394872619	49
0	545	31146.688218936366	50
0	547	31289.06190244462	51
0	553	31561.597221338355	50
0	558	31600.193091438192	51
0	560	31814.568734833204	50
0	569	32044.641224512541	51
0	571	32565.35873294379	52
0	573	32569.03718988707	51
0	577	32916.886408509982	52
0	579	32922.627592252639	53
0	586	33035.431164122912	54
0	592	33458.100130799247	55
0	594	33482.082656801843	54
0	607	33823.000009239816	53
0	624	35132.581360259258	52
0	633	35467.621610195541	51
0	637	35590.381234390748	52
0	648	36095.072646773539	53
0	654	36439.49806425085	52
0	659	36542.605210031273	53
0	661	36549.834154234245	54
0	667	36731.526119950428	55
0	669	36772.414150154456	56
0	675	36782.751493368484	57
0	677	36858.448249989354	56
0	682	36884.502931491837	57
0	688	37007.149915993588	58
0	690	37102.064310026671	59
0	696	37245.522984669709	58
0	701	37391.791767766319	59
0	703	37439.523108717151	60
0	705	37535.312069606074	61
0	707	37653.165605250911	62
0	709	37687.733711670149	63
0	711	38005.004590111472	64
0	721	38308.889626314436	65
0	727	38605.286520485941	66
0	729	38612.062923901459	67
0	731	38698.047471040094	66
0	744	39215.646042129483	67
0	750	39808.065739770545	68
0	752	39984.752054619318	69
0	754	40090.958520279432	68
0	759	40185.168446206782	69
0	765	40680.113256264474	70
0	767	40972.603153953233	71
0	769	41173.945775288138	72
0	771	41226.761206920234	73
0	773	41388.497413759843	74
0	775	41410.741039371909	75
0	777	41470.66458417555	76
0	783	41517.234611491106	77
0	785	41533.641542174759	78
0	787	41574.458788142706	77
0	792	41969.250325665976	76
0	801	42427.100293932878	77
0	803	42440.299117571755	78
0	805	42534.271773354317	77
0	809	42735.620628347042	78
0	811	42740.169399142848	79
0	813	42790.208423369761	80
0	815	42817.098923748808	81
0	817	42942.612685475518	82
0	836	43716.498004452492	81
0	845	44173.68906101876	82
0	847	44237.150605062468	83
0	849	44315.431402544238	84
0	851	44319.847079695369	83
0	864	45320.611265198569	84
0	870	45397.0039383631	83
0	879	45982.384717718864	82
0	884	45996.042914339426	83
0	894	46516.66041652968	82
0	899	46982.44002471974	81
0	907	47249.189750545825	80
0	916	47437.466292154273	81
0	918	47590.021639087404	80
0	936	48042.750169844488	81
0	946	48703.13606071582	80
0	959	49153.423211530949	79
0	968	49653.951811332186	80
0	970	49703.959608034398	79
0	983	50052.234483598425	80
0	993	50572.415684480519	81
0	995	50609.459229403343	80
0	1004	50930.071751223547	81
0	1014	50956.391374536958	80
0	1019	51433.127755416129	81
0	1025	51469.185541350465	82
0	1027	51524.850289321371	83
0	1029	51602.239452539863	84
0	1031	51709.699076482263	83
0	1048	52564.820470608277	84
0	1050	52870.522746139374	83
0	1055	52916.283153994106	84
0	1061	52940.848539066406	85
0	1063	53419.027327054946	86
0	1065	53489.67010154685	85
0	1070	53685.314571900048	86
0	1080	54543.542751004015	87
0	1086	54841.606463895347	86
0	1095	54961.768562077263	87
0	1097	55307.059591587948	88
0	1107	55696.21407906821	87
0	1112	55815.366109415277	88
0	1114	56108.191170600375	89
0	1116	56190.105967873755	90
0	1122	57080.120713636083	91
0	1128	57304.467690245416	90
0	1133	57449.484786311717	91
0	1135	57689.069776641183	92
0	1137	57754.828646114228	93
0	1139	58088.593804385301	94
0	1141	58097.376660365502	95
0	1143	58106.078804166224	94
0	1156	58384.477947994757	95
0	1158	58549.8843941617	96
0	1160	58730.720042485473	97
0	1162	58996.961117641237	96
0	1167	59068.967849197007	97
0	1173	59137.766309212612	98
0	1175	59186.385029264656	99
0	1177	59215.823731447879	100
0	1179	59268.065954199227	101
0	1185	59693.409901466707	102
0	1187	59698.015800390589	103
0	1189	59705.849344842093	104
0	1195	59927.37333645484	105
0	1201	60624.059166939166	104
0	1210	61098.223549303776	105
0	1212	61167.999814008148	106
0	1214	61208.092584663083	107
0	1220	61345.2858845081	106
0	1225	61353.375004997968	107
0	1227	61773.921339915302	106
0	1236	61950.274523451289	107
0	1242	62783.424704813566	106
0	1251	62963.747879903568	107
0	1253	63063.251216698292	108
0	1259	63733.793830377407	109
0	1265	63861.525123038497	108
0	1274	64582.679783879711	109
0	1276	64735.711886387033	110
0	1278	64763.752702207472	109
0	1295	65312.604727926835	110
0	1297	65641.669558080935	111
0	1303	65777.141341467253	112
0	1305	65834.730093621816	111
0	1318	66876.588908524826	112
0	1320	66929.343319752421	111
0	1329	67469.485451284886	112
0	1335	68273.684713930121	113
0	1337	68413.217911006119	112
0	1342	68584.152916356164	113
0	1344	68660.573043858321	114
0	1354	69218.873736943652	115
0	1356	69236.633957924195	116
0	1358	69256.584009600631	117
0	1360	69262.344119278445	118
0	1362	69436.429932185616	117
0	1367	69458.566138035112	118
0	1369	69642.11270825006	119
0	1371	69748.013793894257	118
0	1384	70545.137374332824	119
0	1390	70818.755501949396	118
0	1395	71100.450934816367	119
0	1397	71131.351752539577	120
0	1407	71425.527458110061	119
0	1412	71465.486126909443	120
0	1414	71659.967091236716	121
0	1416	71967.197206535545	120
0	1420	72016.030955785496	121
0	1422	72137.091411386362	122
0	1429	72570.382484158077	123
0	1435	72707.870830291119	122
0	1444	73069.479795796736	123
0	1454	73630.285609115667	124
0	1464	74183.842757039872	123
0	1473	74349.793080971121	124
0	1475	74565.586886309397	125
0	1477	74726.146867250584	126
0	1479	74804.295515076426	125
0	1484	74899.462782756782	126
0	1486	74907.901666714761	127
0	1488	75092.687738997194	128
0	1490	75365.775840738223	129
0	1492	75390.208906040696	128
0	1496	75503.232023996802	129
0	1503	75817.689299986867	128
0	1512	75853.385230412164	129
0	1518	76261.11603403717	130
0	1520	76299.365650222806	129
0	1524	76340.804736755768	130
0	1530	76541.089982195723	131
0	1532	76692.505406275983	132
0	1539	76781.889792360465	133
0	1541	76933.782118142752	132
0	1554	77545.179526288767	133
0	1556	77807.608427301697	134
0	1558	77921.007016207153	135
0	1560	77926.982937599683	136
0	1562	78031.686297426486	137
0	1564	78159.472777751935	138
0	1574	78519.998082810251	137
0	1583	78854.387241419519	138
0	1589	79160.305931438872	139
0	1595	79635.880543433447	140
0	1597	79899.368930212438	141
0	1603	79998.230422766117	140
0	1608	80110.559938823039	141
0	1610	80135.538334034865	142
0	1612	80266.04942496231	141
0	1617	80361.192196209744	142
0	1619	80725.296239097909	143
0	1621	80750.729197928281	144
0	1635	81284.301967929784	145
0	1637	81382.252767048755	146
0	1643	81675.000404634682	145
0	1652	82176.522917592136	144
0	1661	82845.235723341879	145
0	1667	83265.023616759835	146
0	1669	83568.429807195208	147
0	1671	83643.126183921184	148
0	1673	83662.251993858425	147
0	1678	83706.309973809169	148
0	1688	84549.484045066566	149
0	1690	84641.263814502369	150
0	1692	84654.344651878981	149
0	1705	85317.150496836795	150
0	1707	85747.561735578982	149
0	1716	86210.160244749238	150
0	1718	86317.158891530366	151
0	1720	86405.997602768142	152
0	1722	86448.3104842495	153
0	1724	86657.578029439898	154
0	1726	86734.756785143417	155
0	1732	86765.600304299204	154
0	1737	86970.362953178442	155
0	1739	86973.585901954336	156
0	1741	87057.624093579372	157
0	1743	87311.112761902734	158
0	1749	87413.735651639014	159
0	1751	87485.529704087584	158
0	1756	87805.391127013772	157
0	1764	88100.733882968781	158
0	1771	88272.305791744202	157
0	1775	88435.221008985295	158
0	1786	88659.138644480317	157
0	1795	89212.337519669145	156
0	1799	89231.536355714369	157
0	1809	89642.228113594455	158
0	1820	90024.444988145133	159
0	1826	90347.738487416118	158
0	1831	90525.7177687422	159
0	1837	90789.46086487939	160
0	1843	90907.489248209804	159
0	1852	91179.645062194377	158
0	1857	91343.319095069695	159
0	1859	91373.643281816999	160
0	1873	91985.479047329336	159
0	1878	92044.128315582117	160
0	1888	93121.197769159121	161
0	1894	93473.39495777449	160
0	1899	93474.403442272342	161
0	1901	93491.854209884416	162
0	1907	93871.134280441211	163
0	1913	94176.285595962018	162
0	1922	94308.809809734632	163
0	1924	94747.480003673092	164
0	1926	94760.145864443378	165
0	1932	95077.069239140901	166
0	1938	95295.032371872276	165
0	1943	95972.617307783276	164
0	1956	96334.241731323171	165
0	1958	96664.425056980163	164
0	1963	96735.91611958265	165
0	1973	97309.2251661444	166
0	1975	97401.653402366847	165
0	1984	97653.09728115278	166
0	1986	97865.774560796191	167
0	1988	97994.305279674055	168
0	2006	98768.812562183649	167
0	2011	99233.574635397405	168
0	2013	99788.658065044493	167
0	2026	100557.851773134592	168
0	2032	101419.765116603286	167
0	2041	102335.305335906276	168
0	2043	102387.692744671056	169
0	2049	102608.289112916937	170
0	2051	102609.013066471727	169
0	2056	102886.767803684981	168
0	2065	103357.736865722747	167
0	2069	103394.204146478189	168
0	2071	103405.317831305718	169
0	2073	103541.070687798238	170
0	2075	103705.433480055266	171
0	2086	104171.681196095989	172
0	2088	104407.138291604996	173
0	2094	104829.859930386799	174
0	2100	104905.114142613533	175
0	2102	104918.934413486333	174
0	2107	105115.075065911483	175
0	2109	105228.312397543758	176
0	2119	105958.894066953273	175
0	2132	106596.112162538977	174
0	2141	106877.344333451149	175
0	2143	107097.1605247563	176
0	2145	107177.705909184877	177
0	2147	107198.807009559552	178
0	2153	107767.437798970552	177
0	2158	107961.661466220066	178
0	2164	108426.389749032749	179
0	2166	108556.272445044596	180
0	2172	108678.200891756626	179
0	2177	108683.305603527924	180
0	2183	108957.953552820893	179
0	2188	109007.307475919157	180
0	2190	109179.990856185345	181
0	2196	109431.687835547877	182
0	2206	109989.397882111212	183
0	2212	110269.693911612067	184
0	2214	110413.083774403842	183
0	2223	111423.433727113228	184
0	2225	111435.262245700441	185
0	2227	111715.992368416103	184
0	2232	111734.275338271718	185
0	2238	111959.45220724865	186
0	2252	112977.51001245639	185
0	2257	113020.687155403372	186
0	2259	113051.281767323465	187
0	2261	113271.099665808315	188
0	2263	113472.591213853151	189
0	2265	113602.09371502808	188
0	2270	113633.972311455041	189
0	2272	113995.606533293744	190
0	2274	113999.080733836803	189
0	2278	114012.488394047641	190
0	2280	114189.155386406203	191
0	2287	114618.766520082167	192
0	2293	115097.85163450143	193
0	2299	115395.347794846806	192
0	2312	115963.262767828461	193
0	2314	116034.811665483925	192
0	2323	116347.754373998054	193
0	2337	116826.324349332748	194
0	2339	117176.96613411716	193
0	2344	117236.542231509233	194
0	2350	117457.426352997507	195
0	2352	117500.732861061794	196
0	2354	117513.050124452625	195
0	2359	117661.969000709614	196
0	2361	117793.058137179528	195
0	2365	118168.104461696633	196
0	2367	118348.92515662655	197
0	2374	118525.185222156603	198
0	2376	118741.984057488905	199
0	2386	119454.255788953219	198
0	2403	120191.100675734155	199
0	2405	120382.680198134099	198
0	2414	121202.125421048318	197
0	2431	121905.381268531531	198
0	2433	121953.716547340312	199
0	2439	122410.815267851082	200
0	2445	122830.260008391864	201
0	2447	122874.010726914917	200
0	2452	123168.145136245768	201
0	2454	123169.233245153072	202
0	2456	123287.837267945172	203
0	2462	123889.634016708647	202
0	2467	124375.000407331097	203
0	2473	124947.21077312146	204
0	2475	125433.412945413207	203
0	2488	125835.811917741056	204
0	2490	126179.720806848612	205
0	2496	126254.529322696245	206
0	2498	126605.231907069494	207
0	2500	126704.032370031988	206
0	2509	127033.900222665883	207
0	2511	127744.772999827903	208
0	2517	128191.803862030251	209
0	2519	128248.398047381258	208
0	2524	128665.572449185967	209
0	2530	128869.349057258284	208
0	2543	129935.523001582539	207
0	2560	130880.690439039087	206
0	2565	131332.071451016879	205
0	2574	131680.070049421245	206
0	2576	131952.659819529569	205
0	2580	131997.184001983561	206
0	2582	132116.23773198718	207
0	2593	132639.905463786042	206
0	2606	133570.943023250699	207
0	2608	133648.366284885621	206
0	2621	134067.329543040311	205
0	2626	134371.894231059766	204
0	2630	134440.90813496707	205
0	2645	134941.085156568504	204
0	2654	135447.116101490236	205
0	2656	135457.076018239328	206
0	2658	135513.026547427041	207
0	2668	135778.797185158139	208
0	2670	135878.50819594524	207
0	2683	136563.476157595012	208
0	2689	136985.366755407435	209
0	2691	137202.460682847892	210
0	2697	137356.172815852977	209
0	2710	137966.787443417401	210
0	2716	138313.268778429545	209
0	2721	138777.114918793211	210
0	2723	138847.724365287639	209
0	2736	139393.652535126773	210
0	2738	139593.795752402833	211
0	2740	139657.394459598657	212
0	2742	139759.712267443549	213
0	2744	139832.589706846692	212
0	2761	140607.252728150405	211
0	2766	140830.884736026324	212
0	2768	141002.308700272887	213
0	2778	141674.308408455171	212
0	2783	141912.501531814193	213
0	2785	142098.350492746748	212
0	2789	142100.443113605992	213
0	2796	142259.092787540773	214
0	2798	142328.244520199907	215
0	2808	142665.676510513939	214
0	2813	143027.088238042403	215
0	2827	143501.240944930531	214
0	2832	143637.191662052618	215
0	2834	143736.157416811295	216
0	2844	144497.274195574246	217
0	2846	144651.795765197541	218
0	2848	144751.943149746575	217
0	2853	144835.185386514652	218
0	2863	144928.722481997754	219
0	2865	144982.481058020364	220
0	2867	145073.971889757731	219
0	2872	145230.039531837074	220
0	2874	145300.628258301879	221
0	2876	145369.760042555881	222
0	2882	145685.019690288915	223
0	2892	146435.211194002249	222
0	2897	146632.831428362853	223
0	2899	146957.666753176252	224
0	2901	147018.720554936203	225
0	2911	147851.453755864122	224
0	2916	148361.249146648641	225
0	2922	148716.197492919988	226
0	2928	149163.194542140546	227
0	2930	149191.79223637394	226
0	2935	149240.595439882106	227
0	2941	149456.952975728079	228
0	2943	149525.927508988598	227
0	2948	149626.404833029706	228
0	2954	149960.324251004523	229
0	2956	150226.509940692404	228
0	2965	151078.402968790494	229
0	2967	151156.890581437068	230
0	2981	151782.795066472272	231
0	2983	151867.324070961395	230
0	2992	152180.533826911675	231
0	2994	152185.294250836849	232
0	2996	152188.386954547086	231
0	3001	152936.715715483942	230
0	3010	153601.112925229888	231
0	3024	153885.299116105952	230
0	3029	153917.969449748557	231
0	3031	154056.792821869839	232
0	3033	154060.734264311022	233
0	3035	154103.455701097294	234
0	3045	154614.644203987029	235
0	3051	155008.817125776031	234
0	3056	155487.531939068058	233
0	3069	156394.136862897494	232
0	3074	156452.694853391991	233
0	3084	156557.835491719056	234
0	3086	156605.83379073686	235
0	3088	156659.975705681555	236
0	3090	156687.543536939838	235
0	3095	156794.866071677625	236
0	3097	156953.565714911738	235
0	3105	157216.159907619303	236
0	3107	157745.478047114495	237
0	3118	157903.623635844139	238
0	3124	158163.908277110377	237
0	3137	158618.99050609901	238
0	3147	159746.358607740322	237
0	3152	159946.861990851933	238
0	3154	160161.590614492445	239
0	3160	160471.988159915036	240
0	3162	160524.033561764191	241
0	3164	160896.21572372771	242
0	3166	160975.362450064341	241
0	3175	161222.907817171136	240
0	3180	161489.745419481977	241
0	3190	161788.887143856652	242
0	3192	161946.044074774901	241
0	3197	162165.954185973583	242
0	3207	162769.268420017089	243
0	3209	162845.709445283929	242
0	3214	162884.601713174611	243
0	3224	163474.244140498751	244
0	3226	163630.674151962954	245
0	3228	163694.492097080866	244
0	3233	163733.054395036089	245
0	3235	163811.15984221974	246
0	3241	163913.250247759178	247
0	3243	164016.753237757778	248
0	3249	164139.848380637623	249
0	3255	164674.928103276006	250
0	3265	164875.86468817675	251
0	3267	165048.105823894554	252
0	3269	165166.884953187028	251
0	3274	165205.15078993288	252
0	3276	165458.8541077014	251
0	3281	165873.087571044872	252
0	3287	166005.962642650072	253
0	3289	166481.675611583041	254
0	3291	166502.97442872631	255
0	3297	166803.743805394688	254
0	3310	166994.168436237556	255
0	3312	167074.026992465633	256
0	3314	167188.656275405083	257
0	3316	167244.008249457225	258
0	3318	167362.555052743473	257
0	3323	167488.726724633673	258
0	3325	167498.442704087933	259
0	3327	167571.978865071073	260
0	3333	167614.303515327037	261
0	3335	168018.435747995661	262
0	3337	168145.553995103755	261
0	3342	168406.873907010789	262
0	3344	168437.098552754124	263
0	3346	168503.348131134455	264
0	3352	168598.236212173089	265
0	3354	168682.015896835907	266
0	3360	169013.508158086202	267
0	3362	169396.583525612868	268
0	3368	169537.232208543637	267
0	3377	169843.853821127867	268
0	3379	170075.025814110662	269
0	3389	170574.826053747156	268
0	3394	170723.359040369203	269
0	3396	170761.577444486535	270
0	3402	171202.344070741798	271
0	3404	171436.397234426559	272
0	3406	171461.737209285942	273
0	3408	171510.306726570535	274
0	3410	171680.017124123906	275
0	3412	171704.599816383043	274
0	3433	173023.363511004889	275
0	3435	173057.481398911396	274
0	3440	173297.228184728341	275
0	3442	173354.361778069876	276
0	3444	173497.899833077044	277
0	3446	173879.532141120354	276
0	3451	173968.352867593427	277
0	3453	173985.858705976573	278
0	3459	174357.570029047252	279
0	3461	174614.98601447157	278
0	3474	174862.890580277358	279
0	3480	175466.398198263334	280
0	3486	176155.638813481847	279
0	3495	176627.247912202332	280
0	3497	176753.334963752546	281
0	3499	176769.883571795925	282
0	3501	176837.071710148076	281
0	3506	177243.391925780615	282
0	3508	177271.85433029065	283
0	3514	177471.424664133165	284
0	3516	177595.662736886362	283
0	3521	178020.098711824735	284
0	3531	178322.416406640033	283
0	3540	178583.616111422373	284
0	3542	178614.544855107437	285
0	3544	178742.989517453531	286
0	3546	178823.305447701829	287
0	3548	178839.256436259667	286
0	3553	178853.363387714543	287
0	3563	179188.940115452925	286
0	3572	179656.137549446936	287
0	3574	179965.406525330771	288
0	3576	180016.436247615216	289
0	3582	180097.428532503993	290
0	3584	180193.144423396508	289
0	3597	180542.856309705595	288
0	3602	180556.362686086194	289
0	3604	180715.376978825398	290
0	3614	181159.487658509234	289
0	3618	181545.291586937874	290
0	3625	181875.498262750646	291
0	3635	182533.562301167468	290
0	3652	183404.818938302209	291
0	3658	183961.742268800422	292
0	3660	184037.426747736031	293
0	3666	184185.854932175199	292
0	3671	184310.353627352584	293
0	3673	184486.318411778766	294
0	3675	184544.796211548458	295
0	3677	184653.807719330037	296
0	3679	184942.141282122982	297
0	3681	185156.914907754663	298
0	3683	185244.803084090261	299
0	3685	185266.958679848532	298
0	3690	185530.344152517798	299
0	3696	185992.379548589854	300
0	3698	186062.310006697795	301
0	3700	186171.323385476087	302
0	3706	186600.200987489144	301
0	3715	186868.677130223433	300
0	3720	186884.216727480619	301
0	3722	187323.1636312762	302
0	3724	187508.998341652956	303
0	3726	187592.045369737963	302
0	3734	187886.045133983113	303
0	3745	188340.385848849219	304
0	3747	188457.691106977925	305
0	3749	188651.07469083017	306
0	3751	188652.443010866379	307
0	3753	188687.011836966101	308
0	3755	188924.640954205017	307
0	3772	189540.910308056693	306
0	3777	189664.997215559076	307
0	3779	190106.873220356989	308
0	3781	190118.841810715716	309
0	3791	190524.94215383492	308
0	3796	190664.795380435686	309
0	3802	190734.927148714134	310
0	3808	191169.847093158066	311
0	3810	191374.600073800604	310
0	3819	191497.55635321526	311
0	3821	191520.536900497257	312
0	3823	191521.659277579187	313
0	3829	191960.998891017843	314
0	3831	192120.647894816524	315
0	3833	192193.287007727842	314
0	3850	192936.904058619323	315
0	3852	193026.481242971459	316
0	3858	193185.155402500589	317
0	3860	193474.748618894439	316
0	3869	194051.949879436928	317
0	3871	194128.889983029321	318
0	3873	194250.523010479586	319
0	3879	194331.443415269057	320
0	3881	194378.345721396503	321
0	3883	194501.715487769936	322
0	3889	194859.326744709263	323
0	3891	194986.309672326963	322
0	3900	195693.069161989908	321
0	3905	195937.466769056621	322
0	3907	195963.47721544102	323
0	3913	196597.454530869633	324
0	3915	196601.564700857918	323
0	3924	196797.518267818789	324
0	3926	197202.101651269874	325
0	3932	197311.469863932465	326
0	3934	197446.791039704598	327
0	3940	197673.48129830759	328
0	3942	197703.520566367726	327
0	3947	197809.559295355191	328
0	3949	198250.712827697506	329
0	3955	198526.703143113475	328
0	3964	199006.174951913812	329
0	3966	199230.005149560263	330
0	3968	199411.375305199247	329
0	3973	199449.814957072957	330
0	3983	199800.126768865805	329
0	3992	200528.506997533778	330
0	3998	200591.457429121347	331
0	4000	200663.620144532245	330
0	4017	201326.163284443856	331
0	4019	201499.440053980585	332
0	4021	202007.775545598191	331
0	4026	202165.753866884353	332
0	4032	202564.750253674431	333
0	4038	202942.211815149707	332
0	4047	203167.953836316234	333
0	4049	203245.803703878556	334
0	4051	203295.323436034172	335
0	4057	203973.374823143834	336
0	4059	204077.728018157151	337
0	4065	204504.188075245542	336
0	4074	205263.33795978559	337
0	4076	205560.857227699084	336
0	4085	206333.518837660341	337
0	4095	206988.727099534607	338
0	4097	207034.827953272683	337
0	4106	207336.427127768638	338
0	4108	207359.664502651756	339
0	4110	207499.632152672947	340
0	4112	207707.801191454267	341
0	4118	208699.477637888116	340
0	4123	208759.576212316402	341
0	4125	208952.349949882549	340
0	4138	209314.980171540004	339
0	4143	209382.40549407972	340
0	4149	210089.055373679862	341
0	4155	210400.92938344292	340
0	4160	210432.299063182656	341
0	4170	211084.125299289219	342
0	4180	211407.61224932335	341
0	4189	211898.832538339157	342
0	4191	211999.969054342431	341
0	4196	212094.052794735129	342
0	4198	212119.431058282517	343
0	4200	212302.124679586637	344
0	4202	212478.069565437653	345
0	4204	212731.760727456799	346
0	4210	213008.492343434754	347
0	4212	213116.616265432161	346
0	4229	213812.732573674893	347
0	4231	214109.787532445963	348
0	4233	214165.894768014487	349
0	4235	214217.751927989372	350
0	4237	214222.861239536894	351
0	4239	214667.03081399473	352
0	4245	214746.200312108916	351
0	4254	215120.123168057203	352
0	4256	215125.200080273947	353
0	4262	215379.867045640032	354
0	4268	215799.077893228453	353
0	4273	215944.835630445687	354
0	4279	216486.418048791467	355
0	4281	216674.226164148615	356
0	4283	216730.632572996802	357
0	4289	217040.978369818252	356
0	4294	217106.282742191002	357
0	4296	217246.086037989444	358
0	4298	217380.174187880675	359
0	4300	217448.384326917103	360
0	4302	217539.88216131292	359
0	4315	218368.319757499916	358
0	4320	218563.035081954363	359
0	4326	219194.287433468921	358
0	4339	219894.247806459996	359
0	4341	219895.547268794103	358
0	4354	220258.367205193307	359
0	4356	220367.845890733427	360
0	4362	220715.784844255641	361
0	4364	220820.327593589602	362
0	4366	220891.363192678614	361
0	4375	221001.834698783767	362
0	4377	221004.003931920093	363
0	4379	221163.270034033899	364
0	4385	221505.699132250037	365
0	4387	221517.108816362827	366
0	4389	221947.39544241326	367
0	4391	221970.710030138467	368
0	4393	222083.340822260378	369
0	4395	222190.578906226332	370
0	4397	222273.075367503984	369
0	4410	222785.194127093105	370
0	4416	223365.395518497748	369
0	4421	223495.68716522673	370
0	4423	223639.204763114464	371
0	4425	223709.744958200676	370
0	4434	224428.581318495283	371
0	4440	224745.495356679034	372
0	4450	225116.965416514499	371
0	4459	225568.021469684142	372
0	4461	225685.778733502548	373
0	4463	225900.889791912629	374
0	4465	226164.055907719953	373
0	4470	226238.791558528412	374
0	4472	226416.781543609223	375
0	4474	226510.034957574525	376
0	4476	226527.318580758569	377
0	4478	226532.309321372026	378
0	4480	226638.625295862845	379
0	4486	226832.699396227163	380
0	4496	227751.699341007693	379
0	4501	227836.531925792913	380
0	4507	228351.247919580329	381
0	4509	228771.56249582134	380
0	4518	229205.49929395979	381
0	4520	229503.974578523262	380
0	4525	229505.057074862138	381
0	4531	229937.657392209755	382
0	4541	230357.542429645499	383
0	4543	230369.608277292131	384
0	4549	230776.124551401659	383
0	4554	230793.985426926909	384
0	4560	230992.984495416185	385
0	4562	231160.417295296443	386
0	4564	231224.548480185331	387
0	4566	231343.433010758086	386
0	4571	231382.58216364025	387
0	4573	231479.583624060587	388
0	4575	231839.120141964257	389
0	4577	231900.522890607418	390
0	4587	232342.84185929403	391
0	4593	232502.264770412072	390
0	4598	232594.29276637923	391
0	4604	232887.348882405881	392
0	4606	232980.775693238899	391
0	4615	233486.059960306114	392
0	4621	233961.187756800279	391
0	4626	234023.619298416683	392
0	4636	235052.05014027727	393
0	4642	235299.636610827494	394
0	4644	235363.051884097865	395
0	4646	235615.626256273314	394
0	4651	235753.719827143958	395
0	4657	235863.033615976243	396
0	4659	236348.740776994452	395
0	4664	236533.095429777255	396
0	4666	236935.772860214932	397
0	4672	237136.019269190603	398
0	4674	237388.006527566537	397
0	4679	237472.253875969411	398
0	4681	237639.494687275216	397
0	4694	237920.461920437608	398
0	4704	238613.337835886702	397
0	4709	238627.366115665862	398
0	4723	239087.211791895745	399
0	4725	239091.076623563758	400
0	4731	240025.115146034584	399
0	4736	240642.846130191623	400
0	4742	241015.762483815851	401
0	4744	241075.000575452813	402
0	4750	241304.23971409881	403
0	4752	241582.996892838332	404
0	4754	241630.665957884119	403
0	4759	241883.212593196499	404
0	4765	242678.975759850071	403
0	4774	242802.097755871954	404
0	4780	243484.988698635666	405
0	4782	243856.272615821288	404
0	4791	243985.672598454049	405
0	4797	244804.346131191776	404
0	4802	244916.751656600349	405
0	4808	245137.571703114734	404
0	4817	245453.88384837024	403
0	4834	246626.677065013374	404
0	4844	246978.501448399364	405
0	4846	247060.208960318194	404