version 2
run Iteration-27-20200521-09:52:21-55460
attr configname Iteration
attr datetime 20200521-09:52:21
attr experiment Iteration
attr inifile omnetpp.ini
attr iterationvars "$i=3, $j=3, $0=15-(3+3)"
attr iterationvarsf i=3,j=3,15-(3+3)-
attr measurement "$i=3, $j=3, $0=15-(3+3)"
attr network Network
attr processid 55460
attr repetition 0
attr replication #0
attr resultdir results
attr runnumber 27
attr seedset 27
itervar i 3
itervar j 3
param **.resourcePool.amount 3
param **.resourcePool1.amount 3
param **.resourcePool2.amount 15-(3+3)
param **.source.interArrivalTime exponential(6min)
param **.delay.delay uniform(4min,28min)
param **.delay1.delay uniform(10min,28min)
param **.delay2.delay uniform(4min,16min)
param **.allocate.resourceModuleName "\"Network.resourcePool\""
param **.allocate1.resourceModuleName "\"Network.resourcePool1\""
param **.allocate2.resourceModuleName "\"Network.resourcePool2\""
param **.deallocate.resourceModuleName "\"Network.resourcePool\""
param **.deallocate1.resourceModuleName "\"Network.resourcePool1\""
param **.deallocate2.resourceModuleName "\"Network.resourcePool2\""
param **.router.randomGateIndex "uniform(0, 1) > 0.2 ? 0 : 1"

vector 0 Network.allocate queueLength:vector ETV
attr interpolationmode sample-hold
attr title "queue length, vector"
vector 1 Network.allocate1 queueLength:vector ETV
attr interpolationmode sample-hold
attr title "queue length, vector"
vector 2 Network.allocate2 queueLength:vector ETV
attr interpolationmode sample-hold
attr title "queue length, vector"
vector 3 Network.sinkStat lifeTime:vector ETV
attr interpolationmode none
attr title "lifetime of arrived jobs, vector"
attr unit s
vector 4 Network.sink lifeTime:vector ETV
attr interpolationmode none
attr title "lifetime of arrived jobs, vector"
attr unit s
0	0	0	0
0	11	1549.911798284519	1
0	13	1612.671214741778	0
0	18	1724.678597438843	1
0	20	1734.611581571371	0
0	66	4076.773163643039	1
0	76	4235.759866732893	2
0	78	4318.283099467193	1
0	83	4377.557576561595	2
0	85	4460.479745023487	3
0	91	4655.320511842405	2
0	96	4782.458088514816	1
0	101	4784.791682402158	0
0	109	5028.735062850895	1
0	111	5112.847302193081	0
0	419	17458.91583287943	1
0	429	17767.603502078354	0
0	434	17861.454034765883	1
0	436	18070.004011077982	0
0	441	18376.054852735359	1
0	443	18381.527898003362	2
0	449	18626.445157672762	1
0	454	18666.206999807842	2
0	460	18983.374575471681	1
0	465	19000.589354252815	0
0	469	19003.697055355184	1
0	480	19498.418259976607	0
0	647	24462.657446493943	1
0	649	24489.553312219092	0
0	654	24522.867642691998	1
0	668	24687.65188379707	0
0	718	26036.082073237586	1
0	720	26148.148319692772	0
0	1045	38077.710675389254	1
0	1047	38092.843725789798	0
0	1060	38366.141327892742	1
0	1062	38691.590305188307	2
0	1064	38704.15247215856	1
0	1073	38925.201383031863	0
0	1099	39514.270230918442	1
0	1101	39607.976912175903	0
0	1105	39898.451658963187	1
0	1107	39902.718346919397	2
0	1109	39940.528837832248	3
0	1129	40540.067275321468	2
0	1134	40716.894826217555	1
0	1142	40852.760291723201	0
0	1146	40928.332587849558	1
0	1152	41104.293128183469	0
0	1176	41954.027018445712	1
0	1178	41979.905311304592	2
0	1180	42174.845087825321	1
0	1193	42472.382555381225	2
0	1199	42584.229789680228	1
0	1213	42961.851908594431	2
0	1215	42983.053065313958	1
0	1219	43031.377209309852	0
0	1238	43555.314852959867	1
0	1244	43581.076277320438	2
0	1255	43830.702487825416	1
0	1273	44017.243061434841	0
0	1305	44948.340833728257	1
0	1316	45285.330187376952	0
0	1359	46246.997905214503	1
0	1361	46368.497514931234	0
0	1438	48860.591531009818	1
0	1440	48888.564058423339	0
0	1448	48986.349456631081	1
0	1455	49180.19475829137	2
0	1461	49237.248262071502	1
0	1466	49244.442844699221	0
0	1470	49294.912396018749	1
0	1485	49895.754199857908	0
0	1568	52376.414737133532	1
0	1583	52724.600534607843	2
0	1585	52884.733876441359	3
0	1591	53090.344633700265	2
0	1600	53257.288493145017	3
0	1602	53439.682957481784	2
0	1615	53971.634467707949	1
0	1628	54314.345948270816	2
0	1634	54389.025303226155	1
0	1643	54595.955120184723	2
0	1645	54665.447553301169	1
0	1654	54873.190074393528	0
0	1697	56024.989485412855	1
0	1699	56025.324878246269	2
0	1701	56186.267118664603	3
0	1703	56369.343944223347	4
0	1705	56399.731326865035	3
0	1710	56716.952951194721	2
0	1714	56766.090226625479	1
0	1731	57114.417604026052	0
0	1735	57225.347314807803	1
0	1742	57308.526174666363	0
0	1751	57598.96474071591	1
0	1761	57836.124769055244	2
0	1763	57841.252886023971	1
0	1771	58255.445070793308	0
0	1796	58575.968100016381	1
0	1802	58630.753970592412	2
0	1804	58949.11172897128	1
0	1812	59067.64731293517	2
0	1814	59190.523600210823	1
0	1822	59243.208381277176	0
0	1826	59261.812448716451	1
0	1833	59640.431324211565	2
0	1840	59751.550269543966	3
0	1842	59818.466265002429	4
0	1844	59832.740579691191	3
0	1861	60161.623615776576	2
0	1869	60292.32003375556	1
0	1873	60310.616854537037	2
0	1875	60574.97912910678	3
0	1877	60635.711470548662	2
0	1886	60779.502864084481	3
0	1888	60784.419891243257	2
0	1892	60863.674114180876	3
0	1904	61251.264418393346	4
0	1933	61818.909161981602	3
0	1937	61889.543983717837	2
0	1941	61895.140311461541	1
0	1963	62330.392462131955	0
0	1986	62756.733208733319	1
0	1992	62798.85816149846	0
0	2077	65255.658032399054	1
0	2084	65505.034551686536	0
0	2092	65642.903821179086	1
0	2094	65733.642461516778	0
0	2137	66904.579962513606	1
0	2148	67140.613003204009	2
0	2150	67246.204084464446	1
0	2154	67313.733681023936	0
0	2168	67454.782686940986	1
0	2170	67616.272419771496	2
0	2180	67815.119992748718	1
0	2184	67868.348286814918	0
0	2257	69375.613324822219	1
0	2263	69508.286028701937	0
0	2267	69512.624175012494	1
0	2274	69763.310994092843	2
0	2289	70383.654992467169	3
0	2291	70389.553268413144	2
0	2300	70620.898931998981	3
0	2307	70660.82721348076	2
0	2320	70838.471563544249	1
0	2337	71570.054262104529	0
0	2341	71669.36550150352	1
0	2348	71725.571606381038	2
0	2350	71801.857670428925	3
0	2357	71969.681915186037	2
0	2361	71990.641301217587	3
0	2367	72159.530672330534	2
0	2375	72328.473414565521	1
0	2393	72984.884926092004	0
0	2397	72985.611059044125	1
0	2399	73146.539269584316	0
0	2535	77145.352522274516	1
0	2537	77263.652505460351	0
0	2541	77264.174985875158	1
0	2548	77363.376172015779	2
0	2550	77389.753490293998	3
0	2561	77462.036894968045	4
0	2579	77834.773314321534	3
0	2584	77836.564067965889	2
0	2592	78014.305874218761	3
0	2594	78025.238441626112	4
0	2596	78047.723737326399	5
0	2598	78142.675611004403	6
0	2600	78166.474152351885	5
0	2604	78249.054482310013	6
0	2611	78422.593551924885	7
0	2618	78835.110801892476	6
0	2622	78842.844070377915	5
0	2640	79072.90715298667	4
0	2648	79103.756874573415	5
0	2650	79476.984777069235	4
0	2654	79556.397209985487	5
0	2656	79595.558146829872	4
0	2669	79701.327829598981	5
0	2671	79882.449719854818	6
0	2691	80340.656492142523	5
0	2695	80503.568200046318	4
0	2717	80954.818578135629	5
0	2719	80994.120940975586	6
0	2725	81088.568122047155	5
0	2738	81542.721315091992	4
0	2747	81570.503966282277	3
0	2755	81948.282164843875	2
0	2768	82238.466955242922	3
0	2770	82254.51058666703	2
0	2783	82660.156306482553	3
0	2789	82733.376501289562	4
0	2791	82779.414266115571	3
0	2800	82829.878652939695	2
0	2804	82919.09704489563	3
0	2806	82931.989477369063	4
0	2817	83257.42666638096	3
0	2821	83281.536197132016	2
0	2825	83384.572280115411	3
0	2836	83698.861911415347	4
0	2843	83895.303468476205	3
0	2847	83905.163615450387	4
0	2849	83997.628950621533	5
0	2855	84043.54389699747	4
0	2863	84404.246826057699	5
0	2870	84539.036594297265	6
0	2872	84611.761572341064	7
0	2884	84721.591609111572	6
0	2892	84945.422790741076	7
0	2903	85203.605248849696	8
0	2909	85224.377571339875	7
0	2913	85228.835459822911	6
0	2917	85278.289823262537	5
0	2921	85314.255801105341	6
0	2928	85756.070967513262	7
0	2939	86064.723550661293	8
0	2941	86206.127193784857	7
0	2953	86406.619375395912	8
0	2960	86530.831942172843	7
0	2964	86538.601578059762	6
0	2968	86609.644793754529	7
0	2970	86824.427656191557	6
0	2974	86871.015079790848	5
0	2983	87096.635835579461	6
0	3003	87519.190946286956	7
0	3009	87655.277428357447	6
0	3013	87764.998725267249	5
0	3017	87802.270542043417	4
0	3025	88018.894686578664	5
0	3027	88457.126280936026	6
0	3039	88572.939702524389	5
0	3048	88820.962803760665	4
0	3056	89204.233992728561	3
0	3060	89263.262602338689	2
0	3068	89390.108530289079	1
0	3076	89514.640696402463	2
0	3078	89575.791334117154	3
0	3080	89578.313194936899	4
0	3097	90242.334194168749	5
0	3099	90253.689939072873	4
0	3112	90559.233430713483	5
0	3118	90661.245875801116	4
0	3122	90865.498067723709	3
0	3162	91847.118045269098	2
0	3170	92242.237471970886	1
0	3183	92511.616184847551	0
0	3187	92626.83643426719	1
0	3208	92998.995674398282	2
0	3210	93015.374059188336	1
0	3214	93159.228882333782	0
0	3226	93778.034060288496	1
0	3232	93883.718658792943	0
0	3236	93888.014429853385	1
0	3238	94025.886748159426	0
0	3379	98110.044805908334	1
0	3381	98230.711231086864	0
0	3385	98258.737083733254	1
0	3387	98312.412363138998	0
0	3391	98352.466011814931	1
0	3412	98807.132660527243	0
0	3420	98832.236651502005	1
0	3422	98885.054902311069	0
0	3467	100190.918314135061	1
0	3469	100227.080905583135	2
0	3471	100271.79244396435	3
0	3490	100847.098296646471	4
0	3492	100893.237162643617	3
0	3501	100987.839197260589	4
0	3503	101051.530965056737	3
0	3517	101402.034265634139	2
0	3521	101408.701084478509	3
0	3527	101485.731071283214	2
0	3539	101923.955436017135	3
0	3550	102100.191643373569	4
0	3552	102152.767534555441	3
0	3561	102290.248819341056	2
0	3569	102347.031296271174	3
0	3571	102445.601308506449	2
0	3580	102609.073144310659	1
0	3584	102690.362651147839	2
0	3586	102790.511743717882	3
0	3602	103058.925759990804	2
0	3614	103374.45763195077	3
0	3616	103378.744982976933	2
0	3620	103423.472562399086	3
0	3631	103594.331763760692	2
0	3635	103664.875951160212	1
0	3639	103674.279032338778	2
0	3641	103728.457448159449	1
0	3645	103835.207326134394	2
0	3657	104249.954368283861	3
0	3667	104432.906776827295	2
0	3676	104608.21474716211	1
0	3685	104989.446212214522	0
0	3842	109628.699932186853	1
0	3848	109807.45920237175	0
0	3974	115017.489979938145	1
0	3976	115152.489800455422	2
0	3978	115204.409963418957	1
0	3983	115212.323630061577	2
0	3993	115639.029234178112	1
0	4002	115939.094777736707	2
0	4004	115977.703346917035	1
0	4017	116385.050799824045	0
0	4022	116474.30227737601	1
0	4024	116499.950319049176	0
0	4052	117189.128894909301	1
0	4058	117352.397411843058	0
0	4063	117427.548439135549	1
0	4065	117566.617845395843	2
0	4067	117737.287712053942	1
0	4076	117820.36692385708	2
0	4086	117907.712656050668	1
0	4090	118450.349225124507	2
0	4092	118462.908649710235	1
0	4096	118561.86743681925	2
0	4098	118593.350760079273	3
0	4105	118746.605300785589	2
0	4109	118825.202412751673	3
0	4116	118932.027009067138	4
0	4118	119087.018510555145	3
0	4122	119144.245389174126	4
0	4133	119462.312160474476	3
0	4137	119511.48101595764	2
0	4149	119990.226038278627	1
0	4153	120033.744782460902	2
0	4160	120067.756980115207	3
0	4167	120131.539458423601	2
0	4171	120191.898992429552	3
0	4173	120227.351201760911	4
0	4184	120654.860975719736	3
0	4188	120673.571210024175	2
0	4201	120806.867134213759	3
0	4207	121291.069811038421	2
0	4211	121406.126676493871	1
0	4229	121606.082603070465	2
0	4231	121663.741323031233	1
0	4243	121857.551627968059	2
0	4250	122194.751343247709	1
0	4259	122332.943856334313	2
0	4261	122471.272643511412	1
0	4270	122585.867041976738	0
0	4274	122745.244108084264	1
0	4280	122778.576372354971	0
0	4292	123079.414628218935	1
0	4294	123133.261528434958	2
0	4306	123505.885572390246	1
0	4310	123620.818668310759	0
0	4398	126257.391019735089	1
0	4400	126440.217951640087	2
0	4407	126594.390268313368	1
0	4411	126673.380893064795	0
0	4415	126683.637031177515	1
0	4417	126805.704738711563	2
0	4423	126936.636287855585	1
0	4431	126980.158291367768	2
0	4437	127073.136686999446	3
0	4449	127353.642279685905	2
0	4457	127560.454530423639	1
0	4461	127588.843318513503	2
0	4463	127605.264599764693	3
0	4470	127853.30029569876	4
0	4472	127919.821372837155	5
0	4474	128128.209366279912	6
0	4481	128204.137422299145	5
0	4489	128325.390981982132	4
0	4493	128346.77497162806	3
0	4502	128464.600280391258	4
0	4521	128909.125792595228	3
0	4530	129192.443407644503	4
0	4532	129225.56980020689	3
0	4540	129305.371753502118	4
0	4547	129331.089972916852	5
0	4549	129482.25707352691	6
0	4560	129736.890359042345	5
0	4564	129792.3298623817	6
0	4566	129871.47223173348	7
0	4577	130142.968867191544	6
0	4586	130265.398954662165	5
0	4594	130492.809525542213	6
0	4609	130596.382242470314	7
0	4611	130630.721628813538	8
0	4613	130686.613627417146	7
0	4617	130813.024938139727	8
0	4624	130832.762309114119	7
0	4636	131127.723212974748	6
0	4640	131345.851763764543	7
0	4642	131490.739700601867	6
0	4651	131615.458876887938	5
0	4655	131766.637148888281	4
0	4677	132265.424188679217	3
0	4686	132496.574425796649	2
0	4690	132751.856564165524	1
0	4694	132800.965499413656	2
0	4704	133070.710884326569	1
0	4713	133238.277842572509	2
0	4720	133494.124531895377	3
0	4722	133501.264169986031	2
0	4726	133542.507841294764	1
0	4734	133861.509459694177	2
0	4736	133898.391501509802	3
0	4756	134341.216909910223	2
0	4760	134372.600039201587	3
0	4762	134397.196829659997	2
0	4766	134476.468715093567	3
0	4768	134556.689566963784	2
0	4781	135034.233936661355	1
0	4790	135352.675243082127	0
0	4798	135403.08698213464	1
0	4800	135416.430409668146	0
0	4891	138284.201816486727	1
0	4893	138326.563601911577	0
0	4897	138352.335126141458	1
0	4904	138422.772074610758	2
0	4911	138601.291606219551	1
0	4915	138672.010250353517	2
0	4917	138773.193049600473	3
0	4936	139256.924269150676	4
0	4938	139327.027387748327	3
0	4947	139365.954964736542	2
0	4956	139502.403806828472	1
0	4977	139940.88128979719	2
0	4984	140169.616976582324	3
0	4990	140484.330295601925	2
0	4999	140671.807079668012	1
0	5012	141064.69259952443	2
0	5014	141078.899798736486	1
0	5027	141519.818956863085	2
0	5033	141723.581311943075	1
0	5042	141783.264601126823	0
0	5176	145535.285215621111	1
0	5182	145979.456524867638	0
0	5247	147185.48964779055	1
0	5254	147289.8182205415	0
0	5258	147295.821113692564	1
0	5277	148107.700889380242	0
0	5286	148329.686368396877	1
0	5297	148570.55533974485	0
0	5359	150414.48135306718	1
0	5378	150878.709416165108	0
0	5387	151073.213928091072	1
0	5397	151227.965728715148	2
0	5399	151273.686506659603	3
0	5401	151276.390546333838	4
0	5403	151435.795171293235	3
0	5408	151493.878615141377	2
0	5417	151528.487171687833	3
0	5419	151862.052599947976	4
0	5421	151890.5201016772	5
0	5423	151891.146004608924	4
0	5440	152184.71060643559	5
0	5446	152313.427891183167	6
0	5448	152319.657675006552	7
0	5454	152442.754628582949	6
0	5459	152617.743749120052	7
0	5461	152741.790433562452	6
0	5470	152938.042353928551	5
0	5474	152967.065789247668	4
0	5482	153038.309666069945	5
0	5489	153083.408273365973	6
0	5491	153179.086608976588	5
0	5504	153849.698886084175	4
0	5508	153982.507202018113	5
0	5510	154082.584616354758	4
0	5523	154300.471036020967	5
0	5525	154328.437090813274	4
0	5533	154414.865007527635	3
0	5547	154588.764055142915	2
0	5551	154794.255664953499	3
0	5557	155175.583301409239	2
0	5575	155396.797004844349	3
0	5577	155503.939702282464	2
0	5581	155684.801864319523	3
0	5583	155700.78248100029	2
0	5600	155992.287699856327	1
0	5604	156223.496405775463	0
0	5612	156400.934998250071	1
0	5619	156589.139324835593	0
0	5623	156618.539315029853	1
0	5625	156650.729068980084	0
0	5629	156760.735226193262	1
0	5641	157186.504424060499	0
0	5653	157536.847790081961	1
0	5655	157616.084234303886	0
0	5708	158696.779035744785	1
0	5710	158809.64219096964	0
0	5714	158941.8715805032	1
0	5733	159433.618024517681	2
0	5735	159561.63343891346	3
0	5737	159606.224644428314	2
0	5750	159774.335343619937	3
0	5757	159901.708343004547	2
0	5761	159999.150776171559	3
0	5772	160202.530791460627	2
0	5784	160651.019730654472	3
0	5791	160812.135008700911	4
0	5793	160847.700567579919	3
0	5797	160854.823862595679	2
0	5811	161364.3368924616	1
0	5824	161531.341459133623	2
0	5826	161580.520798315965	1
0	5843	161920.097582353019	0
0	5853	162253.270537734622	1
0	5863	162389.718634611381	2
0	5865	162452.547053438085	1
0	5879	162736.573225839259	0
0	5887	162929.639893129797	1
0	5889	162977.74749862236	0
0	5893	162986.173156702569	1
0	5895	163005.419538844355	2
0	5901	163170.533696276807	1
0	5905	163238.602186702098	2
0	5912	163443.989552160465	1
0	5916	163450.913686346668	0
0	6119	170423.825029256809	1
0	6121	170435.985579824625	0
0	6126	170616.665555657925	1
0	6128	170760.797514204148	0
0	6189	172095.140158369883	1
0	6199	172443.042821830289	2
0	6205	172585.591493294934	1
0	6210	172792.481579805154	0
0	6223	173211.364438809313	1
0	6225	173232.028645024995	0
0	6229	173331.137238737931	1
0	6231	173398.103160085266	0
0	6240	173472.204758081459	1
0	6247	173723.213140020508	0
0	6321	175706.615300084023	1
0	6323	175720.494798307103	2
0	6325	175854.621678160491	1
0	6342	176045.347822037543	0
0	6405	177924.473249546605	1
0	6411	178149.867892951964	0
0	6424	178564.941237490749	1
0	6426	178624.005628349983	0
0	6435	178796.954904829555	1
0	6437	179038.182040676448	0
0	6471	179398.181978920274	1
0	6473	179636.690989430223	2
0	6475	179731.967925647231	3
0	6482	179753.356761299047	2
0	6486	179772.397073588291	3
0	6496	179992.840567870433	2
0	6505	180064.741393402706	3
0	6507	180103.482188699744	4
0	6509	180114.498998143498	3
0	6513	180145.524379005293	4
0	6519	180431.288975166463	5
0	6521	180496.553257442984	4
0	6535	180842.14547258466	3
0	6548	181045.536503189031	2
0	6552	181099.5081529021	1
0	6556	181103.166652586162	2
0	6558	181210.609579651053	1
0	6570	181335.288234619075	2
0	6581	181490.617212913904	1
0	6585	181554.256242705877	0
0	6598	181895.133407428916	1
0	6600	181913.174824534352	0
0	6644	182880.598849576178	1
0	6646	183011.291566950363	2
0	6648	183153.503028936658	1
0	6652	183187.81180820765	2
0	6654	183199.251475258347	1
0	6662	183266.35357081415	0
0	6666	183362.171994318595	1
0	6676	183492.113896342025	2
0	6678	183604.237674845931	1
0	6687	183972.870242353744	2
0	6689	183981.326667480145	1
0	6703	184576.491749025856	0
0	6715	184749.473321472209	1
0	6717	184820.168300325142	2
0	6723	184884.493819507676	1
0	6732	184961.996924065132	2
0	6734	185164.96632519978	1
0	6738	185178.980834205354	2
0	6745	185501.583720889328	3
0	6752	185585.234900857228	2
0	6769	185866.63121485692	3
0	6771	185933.318447367295	4
0	6773	185978.088895119701	3
0	6777	186065.994244812605	2
0	6786	186257.938192221242	1
0	6790	186344.931148885367	0
0	6867	187950.00875181589	1
0	6869	188013.336568902762	2
0	6871	188032.616259521275	3
0	6873	188355.37720835615	4
0	6883	188476.214272812766	3
0	6892	188540.980566878584	2
0	6896	188927.048059953145	3
0	6907	189050.936354434924	4
0	6909	189194.784753547625	5
0	6911	189333.257138193049	4
0	6925	189618.207311355335	3
0	6937	190012.629915943413	4
0	6943	190155.622795586255	3
0	6947	190194.580696409607	4
0	6949	190228.170167752006	3
0	6953	190237.845716987156	4
0	6974	190776.97281206475	3
0	6978	191016.917738196221	2
0	6996	191576.32446209785	1
0	7004	191695.74610202054	0
0	7081	193753.859306668873	1
0	7083	193843.444762957053	0
0	7215	197246.93610023178	1
0	7234	197665.12892568433	0
0	7243	197769.844643779085	1
0	7245	197834.920150758048	2
0	7247	197835.743226554533	1
0	7256	197976.375959913056	2
0	7262	198284.680508411774	3
0	7264	198326.198426129696	2
0	7268	198361.50237011124	3
0	7270	198437.271540019492	4
0	7272	198447.489605039204	5
0	7288	198747.098111900923	4
0	7301	198953.104291053888	3
0	7309	199116.895093541881	2
0	7313	199133.901177858967	3
0	7325	199513.04828397586	2
0	7329	199636.268138306558	3
0	7335	199664.185227967915	4
0	7337	199982.723325877105	5
0	7343	200005.267964357909	4
0	7356	200159.441776565566	5
0	7363	200340.768901686606	4
0	7367	200401.691074688042	5
0	7369	200457.753167446991	4
0	7390	201307.37061660382	5
0	7392	201349.366814043661	4
0	7396	201355.802022683856	3
0	7415	201651.540822813686	2
0	7431	202250.487023451184	3
0	7433	202260.887606199321	2
0	7442	202318.109646544205	3
0	7444	202327.801555567821	4
0	7446	202615.659087540981	3
0	7455	202828.060023892959	2
0	7463	202971.932054481585	3
0	7474	203009.252443069991	2
0	7488	203437.015605213519	1
0	7492	203528.401152003845	0
0	7496	203556.298757550524	1
0	7498	203558.315795417365	0
0	7502	203715.671032108479	1
0	7508	203766.19998039977	2
0	7518	204077.334773723325	1
0	7527	204292.983513842273	2
0	7534	204646.13339221054	1
0	7538	204728.017031865593	0
0	7618	206738.762980010095	1
0	7624	206967.395019127464	0
0	7634	207205.220945828648	1
0	7646	207399.084001457545	2
0	7648	207524.649830592846	3
0	7650	207550.698453890265	2
0	7654	207593.458570142645	1
0	7662	207831.817056545892	2
0	7669	207913.425205206907	1
0	7673	208091.726253641206	0
0	7715	209353.02584723156	1
0	7717	209431.666111276829	0
0	7737	209749.062283767124	1
0	7739	209994.782820249611	0
0	7743	210020.47880800211	1
0	7745	210067.332169414842	0
0	7821	211976.784146244058	1
0	7823	212045.77412935398	0
0	7857	212936.715129613656	1
0	7863	213071.767983515928	2
0	7865	213134.72595045561	3
0	7867	213195.665651172916	2
0	7875	213326.941932408311	3
0	7882	213343.880975675258	4
0	7884	213550.398079756856	5
0	7891	213559.904296665126	4
0	7895	213696.837201684029	5
0	7902	214024.508887807437	6
0	7908	214100.481273657622	7
0	7910	214121.8831064609	6
0	7914	214125.478218183438	5
0	7922	214421.737177959447	6
0	7928	214702.479748732084	5
0	7942	215128.307413762541	4
0	7946	215248.83627133147	5
0	7948	215259.607781210592	6
0	7954	215343.120856456975	5
0	7958	215353.861340886587	4
0	7967	215630.525282031031	3
0	7976	215701.248195214802	2
0	7988	216153.972505987207	1
0	8006	216275.044260628321	2
0	8008	216297.053291290444	3
0	8019	216986.047863295237	4
0	8021	217065.698253853353	3
0	8033	217233.232466845447	2
0	8042	217376.386038721124	1
0	8046	217410.580440616342	0
0	8079	218341.679129279628	1
0	8085	218532.067277101907	0
0	8290	224663.066499995017	1
0	8306	225313.661898976121	2
0	8308	225414.696267280899	3
0	8319	225640.204213179381	2
0	8333	225813.239690919932	1
0	8341	225905.381027266116	0
0	8554	232483.765611479544	1
0	8556	232538.842761869968	2
0	8562	232814.626253589548	3
0	8569	232963.673384901108	4
0	8575	233114.611706224252	3
0	8584	233244.259160956481	2
0	8597	233469.386336609253	3
0	8603	233676.754056339134	2
0	8608	233776.27383822712	3
0	8610	233818.073729801674	4
0	8612	233856.103817088643	3
0	8616	233864.349495924297	2
0	8638	234451.919830013122	3
0	8640	234506.144845666094	4
0	8654	234899.592224968711	3
0	8663	235047.821054545213	2
0	8668	235071.495954959873	1
0	8677	235451.457554450372	0
0	8935	242331.941720989612	1
0	8937	242361.477998040791	2
0	8939	242367.551508721177	3
0	8945	242410.453203019032	2
0	8950	242425.926077978443	1
0	8955	242495.816939793168	2
0	8961	242723.483626803218	1
0	8966	242765.679258161913	0
0	8970	242778.740652146228	1
0	8972	242875.302264326594	2
0	8974	243128.037280728633	3
0	8976	243137.25950285376	4
0	8978	243174.694972833692	5
0	8980	243191.424586674308	6
0	8999	243784.339773872068	7
0	9001	243874.910651927649	6
0	9006	243894.260445010194	5
0	9014	244150.272640788685	4
0	9027	244422.298116086169	5
0	9029	244496.777340376507	4
0	9047	244945.503423286437	3
0	9051	244946.421159837672	2
0	9059	245344.220918526708	1
0	9067	245402.25072120804	2
0	9069	245488.106010051202	1
0	9073	245634.120530259141	0
0	9082	245929.332481475315	1
0	9089	246003.185433342605	2
0	9091	246132.351272987149	3
0	9093	246383.974369838766	4
0	9095	246411.378883586761	5
0	9102	246418.000550962951	6
0	9108	246575.590002794096	5
0	9116	246825.492539553082	6
0	9118	246872.169110996484	5
0	9122	247004.878533573579	4
0	9126	247029.682461290394	5
0	9142	247455.297615973114	4
0	9146	247458.711852110587	5
0	9165	248000.779350025414	4
0	9169	248110.091823486261	5
0	9171	248142.6744085343	4
0	9180	248248.343678523132	3
0	9184	248279.94366284257	2
0	9197	248576.17245629227	1
0	9201	248945.803510651256	2
0	9212	249085.271406059919	1
0	9216	249110.626396829503	2
0	9218	249115.347888374459	1
0	9222	249122.699947362635	2
0	9233	249411.485291092794	3
0	9240	249608.167183433005	2
0	9249	249705.912010719163	3
0	9251	249971.383121767187	4
0	9257	250087.959737756979	3
0	9266	250329.963867438454	4
0	9268	250455.934579053652	3
0	9280	250518.710200634131	2
0	9288	250593.35715479946	1
0	9297	250670.355510662897	2
0	9299	250816.782198818342	3
0	9301	250877.474149963331	4
0	9303	250882.897465450524	3
0	9307	250921.692320555793	4
0	9336	251709.554835764053	5
0	9338	251739.07758433169	4
0	9342	251757.184357547891	3
0	9346	252001.771677207479	2
0	9354	252142.943733239305	1
0	9368	252509.675579174423	2
0	9379	252736.949663961065	1
0	9387	253020.462829727957	0
0	9391	253103.805092230574	1
0	9393	253402.747478445827	0
0	9401	253704.985874169884	1
0	9403	253758.377764018011	0
0	9412	253831.852738862718	1
0	9419	253922.093350723114	2
0	9426	254122.035110125077	1
0	9430	254140.658874247501	0
0	9442	254367.209583574924	1
0	9444	254403.497993831945	2
0	9450	254736.350389977752	1
0	9454	254996.628736050558	0
0	9513	256304.55388721307	1
0	9515	256510.35383318996	2
0	9526	256688.343647726659	3
0	9528	256721.854925627677	4
0	9530	256868.869543486249	5
0	9536	256951.243617304593	6
0	9543	257049.887496048813	7
0	9550	257385.730187434083	6
0	9558	257472.341424013436	5
0	9571	257629.939476622297	4
0	9575	257653.428883559922	5
0	9582	257711.398619289356	6
0	9584	257885.202578204632	5
0	9601	258527.907499435669	4
0	9605	258541.734938592968	5
0	9611	258614.813974322075	6
0	9613	258629.473620465054	5
0	9617	258729.16634848391	6
0	9632	259195.696984018147	5
0	9646	259416.523509135499	4
0	9650	259637.882732371469	5
0	9652	259787.281640505447	4
0	9656	259814.988222504914	3
0	9660	259855.815108928209	2
0	9673	260089.105656070664	1
0	9686	260138.431851218765	0
0	9690	260357.275645312604	1
0	9701	260728.117699471058	2
0	9711	260857.388887664333	1
0	9720	261283.757792938591	2
0	9727	261325.001664000874	1
0	9731	261344.88116861266	2
0	9733	261427.329751226068	1
0	9746	261853.387603757933	0
0	9797	263036.415664621496	1
0	9816	263514.203839363023	2
0	9832	263736.981277164002	1
0	9845	263947.789022033729	0
0	9849	264105.065735439841	1
0	9855	264447.845380460855	2
0	9857	264469.160760499018	3
0	9863	264542.001489134244	2
0	9872	264704.944023150881	1
0	9894	265151.402887547127	0
0	9898	265220.41766385189	1
0	9900	265305.384740462222	0
0	9913	265864.714059975596	1
0	9920	265954.660185236414	0
0	9935	266232.251963787674	1
0	9945	266665.880472756164	2
0	9947	266740.585505956571	1
0	9951	266826.273378055473	0
0	9965	267159.629214433584	1
0	9967	267204.467977505108	0
0	9976	267289.197047068587	1
0	9988	267744.725473146816	0
0	10009	268177.529087218941	1
0	10011	268244.370490120511	0
0	10092	270735.573341732933	1
0	10112	271258.696097940132	0
0	10227	274532.481151324525	1
0	10233	274664.71002282785	2
0	10235	274677.785298941107	1
0	10239	274678.451255553222	2
0	10241	274689.631312547485	3
0	10248	275084.376048236214	4
0	10250	275142.854153379386	3
0	10254	275150.040488333039	2
0	10280	275982.692558408313	1
0	10289	276223.583359723361	0
0	10327	277119.960307776755	1
0	10329	277133.393531036945	0
1	0	0	0
1	45	3185.607408963115	1
1	47	3299.261476749525	0
1	103	4784.791682402158	1
1	113	5112.847302193081	2
1	116	5141.675174350405	3
1	122	5267.175567229699	4
1	124	5321.05553485479	3
1	130	5353.629855448639	4
1	132	5438.717641709631	3
1	152	6096.99420663554	2
1	157	6115.010243132969	1
1	163	6210.930516450466	2
1	166	6214.416926397117	3
1	168	6413.904120582577	2
1	185	7272.284812229013	1
1	190	7351.305859033277	0
1	221	8184.892572106495	1
1	234	8729.874756599245	2
1	236	8789.674551356843	1
1	241	8954.510107804349	0
1	266	9749.400418793712	1
1	272	9876.447048736995	0
1	467	19000.589354252815	1
1	475	19453.598934128433	0
1	482	19498.418259976607	1
1	485	19527.372302180528	2
1	487	19675.683793092322	1
1	496	20010.540317494598	0
1	502	20037.403409700393	1
1	508	20263.235718994885	0
1	524	20761.204468038875	1
1	529	20818.532964226034	0
1	547	20983.562248554073	1
1	560	21442.66215948902	0
1	566	21735.297241042881	1
1	572	21859.990499270867	2
1	578	22446.161537619483	1
1	586	22623.315722571862	0
1	592	22804.384209917618	1
1	594	22808.041289817094	0
1	600	22941.017870541028	1
1	617	23812.582425775182	0
1	722	26148.148319692772	1
1	725	26281.863821856488	2
1	728	26287.423184480823	3
1	730	26300.419004082093	2
1	739	26515.286310748868	1
1	745	26650.927143478256	2
1	755	26904.428431210389	1
1	763	27152.892975607627	0
1	776	27741.24231321114	1
1	778	27746.547293211614	0
1	986	35936.819599347299	1
1	989	36457.552758187215	2
1	995	36635.761051824246	1
1	1000	36812.103558339313	0
1	1079	39102.660596665455	1
1	1085	39301.913701914209	2
1	1091	39413.440272879315	1
1	1103	39607.976912175903	2
1	1111	40230.07839600229	1
1	1116	40244.800760917324	0
1	1136	40716.894826217555	1
1	1144	40852.760291723201	2
1	1154	41104.293128183469	3
1	1157	41176.292374012658	4
1	1163	41782.652664756361	3
1	1168	41865.670814501581	2
1	1182	42174.845087825321	3
1	1184	42179.554695073872	2
1	1201	42584.229789680228	3
1	1203	42615.656671157566	2
1	1208	42894.079679524485	1
1	1217	42983.053065313958	2
1	1221	43031.377209309852	3
1	1227	43166.47968071176	2
1	1233	43423.899439877257	3
1	1246	43633.926777212409	2
1	1257	43830.702487825416	3
1	1259	43848.90730417928	2
1	1264	43935.922828357626	1
1	1275	44017.243061434841	2
1	1278	44162.297536835351	3
1	1280	44286.118576700328	2
1	1293	44729.383771572221	1
1	1311	45025.793644037454	0
1	1318	45285.330187376952	1
1	1320	45326.913100161119	0
1	1330	45413.896231575869	1
1	1333	45526.350685093915	2
1	1343	45817.787513764534	1
1	1351	46232.972718147917	0
1	1363	46368.497514931234	1
1	1366	46381.432556749148	2
1	1368	46591.010641443073	1
1	1377	46994.17151476625	0
1	1403	47781.815408823761	1
1	1412	48050.891380241602	0
1	1424	48455.264307887877	1
1	1426	48532.625431030948	0
1	1442	48888.564058423339	1
1	1450	49048.099323166527	0
1	1468	49244.442844699221	1
1	1476	49668.385812355165	0
1	1487	49895.754199857908	1
1	1494	50211.197105229198	2
1	1497	50270.914314927053	3
1	1499	50488.220762083267	2