version 2
run Iteration-26-20200521-09:52:19-65392
attr configname Iteration
attr datetime 20200521-09:52:19
attr experiment Iteration
attr inifile omnetpp.ini
attr iterationvars "$i=3, $j=2, $0=15-(3+2)"
attr iterationvarsf i=3,j=2,15-(3+2)-
attr measurement "$i=3, $j=2, $0=15-(3+2)"
attr network Network
attr processid 65392
attr repetition 0
attr replication #0
attr resultdir results
attr runnumber 26
attr seedset 26
itervar i 3
itervar j 2
param **.resourcePool.amount 3
param **.resourcePool1.amount 2
param **.resourcePool2.amount 15-(3+2)
param **.source.interArrivalTime exponential(6min)
param **.delay.delay uniform(4min,28min)
param **.delay1.delay uniform(10min,28min)
param **.delay2.delay uniform(4min,16min)
param **.allocate.resourceModuleName "\"Network.resourcePool\""
param **.allocate1.resourceModuleName "\"Network.resourcePool1\""
param **.allocate2.resourceModuleName "\"Network.resourcePool2\""
param **.deallocate.resourceModuleName "\"Network.resourcePool\""
param **.deallocate1.resourceModuleName "\"Network.resourcePool1\""
param **.deallocate2.resourceModuleName "\"Network.resourcePool2\""
param **.router.randomGateIndex "uniform(0, 1) > 0.2 ? 0 : 1"

vector 0 Network.allocate queueLength:vector ETV
attr interpolationmode sample-hold
attr title "queue length, vector"
vector 1 Network.allocate1 queueLength:vector ETV
attr interpolationmode sample-hold
attr title "queue length, vector"
vector 2 Network.allocate2 queueLength:vector ETV
attr interpolationmode sample-hold
attr title "queue length, vector"
vector 3 Network.sinkStat lifeTime:vector ETV
attr interpolationmode none
attr title "lifetime of arrived jobs, vector"
attr unit s
vector 4 Network.sink lifeTime:vector ETV
attr interpolationmode none
attr title "lifetime of arrived jobs, vector"
attr unit s
0	0	0	0
0	11	1002.836257303836	1
0	13	1040.502226970224	2
0	15	1120.430847153492	1
0	20	1516.669532999821	0
0	25	1776.541595027329	1
0	31	1928.373604622561	0
0	67	2899.810054359498	1
0	69	3098.290387289987	2
0	71	3164.776220620533	1
0	75	3211.43485970267	2
0	82	3336.520348887634	3
0	84	3341.752454061884	2
0	88	3409.433879755215	3
0	90	3422.534841166329	4
0	97	3724.839261612471	5
0	103	4177.652527665044	6
0	105	4232.878051595659	5
0	113	4368.898030171686	6
0	120	4679.688346200546	5
0	124	4896.781087388176	4
0	137	5245.624384889276	3
0	150	5953.620578908285	2
0	163	6333.860129350515	3
0	165	6523.124521532924	2
0	169	6541.273044553477	1
0	178	6703.023352452293	2
0	184	7057.810599469503	1
0	188	7293.316401105029	2
0	190	7419.485280478848	3
0	196	7645.540042743941	2
0	205	7730.876937216355	3
0	207	7779.537045697401	4
0	209	7831.662810617184	5
0	211	7880.992821799488	4
0	220	8110.824260544855	3
0	224	8135.422785506962	4
0	226	8293.66558067586	3
0	230	8491.512574405826	4
0	232	8517.89373409924	3
0	245	8897.168943593175	2
0	257	9078.493890903076	3
0	264	9157.807673272569	2
0	268	9471.184865292985	1
0	276	9763.92010532405	0
0	295	10144.324973530172	1
0	297	10539.18429647562	0
0	306	11041.462228661532	1
0	308	11047.452440382809	0
0	346	12281.847117747473	1
0	348	12333.581897749519	2
0	355	12484.649427717529	3
0	357	12525.872351928205	4
0	364	12659.624447794527	3
0	368	12905.378852587526	4
0	370	12979.14273965134	3
0	374	13008.507936729582	2
0	391	13356.230677451033	3
0	402	13977.100890902418	2
0	406	14270.386800141901	1
0	415	14538.203471696468	0
0	444	15431.745287277993	1
0	450	15904.933161570223	0
0	470	16350.038711044892	1
0	480	16464.099777138324	0
0	531	18071.406061446043	1
0	533	18197.957605882965	2
0	535	18516.542134799987	1
0	539	18618.916137183063	2
0	550	18681.815773216541	1
0	559	19121.491095816173	0
0	602	20148.020772182627	1
0	608	20476.267846962924	0
0	616	20676.266160039255	1
0	618	20676.967407596685	0
0	627	20800.821442431401	1
0	629	20875.642431653598	2
0	631	21113.171325801427	1
0	640	21170.442243825876	0
0	653	21416.745026913836	1
0	655	21432.855907251515	0
0	659	21607.386412547184	1
0	661	21731.230027555043	0
0	665	21777.866464166079	1
0	675	22003.595522651266	2
0	677	22506.621756416046	1
0	686	22673.803925385155	0
0	695	22834.517218078963	1
0	697	22909.527917063861	2
0	703	23235.093192747349	1
0	707	23463.310120685246	2
0	713	23544.200338443198	1
0	717	23954.609019097653	2
0	729	24170.970341947162	1
0	733	24261.43807620657	2
0	735	24272.732391087825	1
0	739	24312.759488716838	2
0	741	24356.11072352785	3
0	747	24793.59214509886	2
0	751	24928.835418356039	1
0	759	25252.957821657338	0
0	769	25418.286342934337	1
0	771	25473.610175599081	2
0	773	25509.874507086122	3
0	785	25664.072227750206	2
0	789	25833.145722640854	3
0	795	26134.735131059942	4
0	806	26298.690939416566	3
0	810	26319.413791971462	2
0	814	26378.97625376688	3
0	816	26660.803671518522	2
0	820	26667.67056973783	1
0	824	26710.761909757042	0
0	828	26736.58011477059	1
0	844	27024.823005872029	0
0	999	32829.269484439587	1
0	1001	32951.274359056392	0
0	1005	33029.57882230339	1
0	1012	33242.205844047724	0
0	1026	33860.89768338764	1
0	1038	34109.94136469219	0
0	1076	35653.967137585727	1
0	1078	35769.122248084882	0
0	1082	35797.163742877887	1
0	1084	35913.61528479341	2
0	1086	36189.470924527982	1
0	1090	36208.680196727839	2
0	1105	36409.67082662566	1
0	1109	36471.17848153355	2
0	1111	36640.753397391266	3
0	1113	36828.875905925074	2
0	1117	36968.387217920006	1
0	1135	37294.590512791315	0
0	1269	40485.768519262785	1
0	1275	40955.129258876341	0
0	1290	41503.421893815287	1
0	1292	41505.119232406514	0
0	1311	41924.584214015573	1
0	1318	42539.805234849872	2
0	1320	42584.69403611992	3
0	1331	42699.771377376696	2
0	1335	42734.026051134671	1
0	1339	42763.854273575185	2
0	1341	42871.123651286262	1
0	1349	43300.234289189476	0
0	1353	43313.03705171634	1
0	1360	43367.885277687987	0
0	1364	43440.864283535751	1
0	1375	43900.591486340064	0
0	1398	44767.70852146308	1
0	1404	44788.322298259045	2
0	1406	44902.156437245804	1
0	1410	45013.677364712333	2
0	1412	45026.926308690985	1
0	1416	45252.653810476559	0
0	1420	45360.412580044839	1
0	1432	45490.738687802429	0
0	1456	46320.744645004971	1
0	1458	46327.908562717034	2
0	1460	46378.429844778354	1
0	1464	46380.841102462372	2
0	1466	46461.867894133112	3
0	1478	46876.167713368417	2
0	1482	47122.242553633029	1
0	1486	47226.813638429644	0
0	1494	47405.974186225157	1
0	1510	47944.452155608838	2
0	1512	48048.334805036069	1
0	1516	48283.977252523557	2
0	1518	48409.128843429985	1
0	1522	48455.185012484075	0
0	1566	49612.04968792054	1
0	1568	49703.300892852602	2
0	1579	49945.288241582097	1
0	1583	50067.314325369778	2
0	1589	50279.819850723826	3
0	1591	50288.716801816703	2
0	1600	50391.283187062334	3
0	1602	50414.66206030869	4
0	1604	50425.184015863049	5
0	1606	50537.786455739367	4
0	1610	50717.593010245317	3
0	1618	50898.514872120799	2
0	1622	50962.901940148337	3
0	1629	51303.607793978306	4
0	1631	51426.40217669505	3
0	1635	51577.870494081133	2
0	1644	52044.404175493944	1
0	1648	52106.608460243531	2
0	1663	52298.491178928369	1
0	1667	52427.595391155707	2
0	1673	53019.989499488951	1
0	1677	53177.019398249206	2
0	1679	53224.121744882393	1
0	1693	53494.75895213716	0
0	1697	53495.906094129807	1
0	1699	53521.313494743425	2
0	1701	53579.225756332358	3
0	1703	53671.504825531	2
0	1707	53751.658407116414	1
0	1715	53897.88661741204	2
0	1717	53971.128974557146	3
0	1723	54469.157209049988	2
0	1732	54563.022210341355	3
0	1734	54629.346105309309	2
0	1743	54787.332837458778	1
0	1747	54811.495992681438	0
0	1751	54984.876340300262	1
0	1757	55138.6841857453	0
0	1765	55346.098756280212	1
0	1767	55573.028921587819	0
0	1842	57963.541518026275	1
0	1844	58147.98330580953	2
0	1846	58316.841985096771	1
0	1850	58469.149462059649	0
0	1863	58746.75032060452	1
0	1865	58799.425198814758	2
0	1876	59277.239089070627	1
0	1880	59418.346898444506	0
0	1894	59833.95730743286	1
0	1901	60050.641513909667	2
0	1903	60127.586140653565	3
0	1914	60355.817472423945	2
0	1918	60416.304237245055	3
0	1920	60546.36105663547	4
0	1927	60684.912316017362	3
0	1931	60905.195530696538	4
0	1937	60914.886297604808	3
0	1946	61260.486347452315	2
0	1954	61593.489220525656	1
0	1963	61796.557031124812	2
0	1974	62051.116110182175	1
0	1978	62075.713437255866	2
0	1984	62354.716248699042	1
0	1993	62487.154869336222	0
0	2001	62553.529468302452	1
0	2003	62813.259172435326	2
0	2009	63030.097844116899	1
0	2018	63340.543350375065	0
0	2026	63395.917416024885	1
0	2028	63539.28193484578	0
0	2096	65780.683441829816	1
0	2102	65883.0758561729	2
0	2104	65941.00337747739	1
0	2122	66042.227612687284	2
0	2128	66474.207943055523	1
0	2136	66809.979492151098	0
0	2168	67411.181202420369	1
0	2170	67586.977758385596	2
0	2172	67607.510190384579	1
0	2176	67618.278206908436	2
0	2178	67761.405790704011	3
0	2184	67971.216646190382	4
0	2195	68225.359513906451	5
0	2197	68413.443868603803	4
0	2201	68439.255420962931	5
0	2212	68779.993781039608	4
0	2216	68820.399758835822	3
0	2220	69143.86884044915	4
0	2222	69202.582703092554	5
0	2224	69285.052063608869	6
0	2235	69487.998617586696	7
0	2237	69544.997673552729	6
0	2241	69657.120334874264	7
0	2252	70041.01114852497	6
0	2256	70269.603374714149	5
0	2265	70360.535470640447	6
0	2276	70561.845021188074	7
0	2278	70625.752384696402	6
0	2286	70888.224021729842	7
0	2288	70930.874071920672	8
0	2290	70938.046174553722	7
0	2308	71557.460382295944	8
0	2310	71689.937260190142	7
0	2314	71740.358016940321	8
0	2320	71831.628834537551	9
0	2322	71884.533712549381	10
0	2328	72036.963666319188	11
0	2330	72046.379314560831	12
0	2332	72083.133273244839	13
0	2339	72264.154681671657	12
0	2343	72461.937156414181	11
0	2356	72713.005639930755	10
0	2364	72965.390864942469	9
0	2373	73112.446425894392	8
0	2377	73113.097552619887	9
0	2379	73358.473527102924	10
0	2381	73416.432975894228	11
0	2383	73465.166392829317	12
0	2385	73522.480852935709	11
0	2389	73567.17235358575	10
0	2393	73823.094435139359	11
0	2399	73990.633247491218	10
0	2403	74010.906622580569	11
0	2405	74070.247516984584	12
0	2412	74270.500287000336	11
0	2416	74322.329238639277	12
0	2418	74475.795688854647	11
0	2427	74888.914560873325	12
0	2429	75000.345424769014	11
0	2433	75003.170053279135	12
0	2444	75439.657526757814	11
0	2452	75565.800140949083	10
0	2456	75566.847885776175	11
0	2463	75982.050005292088	10
0	2476	76087.145030127955	9
0	2480	76321.340735181803	10
0	2490	76456.14009697778	11
0	2492	76653.330196623005	10
0	2496	76679.374189277344	11
0	2498	76965.967520732679	10
0	2502	77320.938389395863	9
0	2511	77377.791540512932	8
0	2520	77521.638728721949	9
0	2522	77667.40900241794	10
0	2524	77683.852612327356	11
0	2526	77816.727201637127	10
0	2530	77829.365788995406	11
0	2540	78538.574209440118	12
0	2542	78599.437247039292	13
0	2544	78788.479253781528	12
0	2553	78875.464385651728	13
0	2555	79002.575527325026	14
0	2557	79045.533285403741	13
0	2566	79207.146785972023	14
0	2572	79451.379396576681	13
0	2576	79782.16972320924	12
0	2584	79926.910557133646	11
0	2588	79991.528938712669	10
0	2592	80135.610082408498	11
0	2594	80280.521489922115	12
0	2606	80831.930486236074	13
0	2608	80887.329761800464	14
0	2614	81186.197564939154	13
0	2618	81326.240366619327	12
0	2626	81566.558485025449	13
0	2628	81570.364166816266	12
0	2632	81594.187890846746	13
0	2648	82238.271476089457	14
0	2659	82525.260278232865	15
0	2661	82568.918552978782	16
0	2663	82767.69506653914	15
0	2667	82819.614275733126	14
0	2671	82961.899603639045	13
0	2675	83098.071954422648	14
0	2681	83412.935531657436	13
0	2685	83438.981282281666	14
0	2687	83534.995573554194	15
0	2694	83691.987946463318	14
0	2703	84095.673368800306	15
0	2705	84155.451016428066	14
0	2709	84159.858707066202	15
0	2711	84234.809154592075	16
0	2731	84699.990118589499	15
0	2735	84972.537526527537	14
0	2739	85069.667880160936	15
0	2745	85266.362101492973	14
0	2749	85303.18556519188	15
0	2760	85362.462744289794	16
0	2766	86021.26139216323	15
0	2775	86187.358362287644	16
0	2777	86264.985654201605	15
0	2785	86475.827283935739	14
0	2794	86709.824324182468	15
0	2800	86941.268448775204	14
0	2804	86959.851581674316	13
0	2808	86998.907214764271	14
0	2810	87081.437022613721	15
0	2812	87333.160444210032	16
0	2814	87362.614420468105	15
0	2818	87489.578579583356	16
0	2825	87618.212714862325	15
0	2829	87726.70449452618	14
0	2833	87890.160785860905	15
0	2849	88263.636478448404	14
0	2853	88317.472075050292	15
0	2859	88669.025703409804	14
0	2868	88788.958418812849	13
0	2876	89083.648468685838	12
0	2884	89129.544667244003	13
0	2886	89334.97649874572	14
0	2888	89375.37794256689	15
0	2890	89404.922044951356	16
0	2892	89471.505257936312	15
0	2901	89874.386925697167	16
0	2908	90198.353631641962	15
0	2912	90467.888309047931	16
0	2918	90743.161715661677	15
0	2926	90887.765354099677	16
0	2933	90920.165288705625	15
0	2937	91069.063946904732	14
0	2946	91290.539610382416	13
0	2958	91880.266970751377	12
0	2967	92188.350624739807	13
0	2969	92276.557224240401	12
0	2978	92451.490316001268	11
0	2982	92479.186178857578	10
0	2999	93002.965281596816	11
0	3001	93489.88776972984	12
0	3012	93836.781441603103	11
0	3016	94063.540417683812	10
0	3020	94076.391292328132	9
0	3028	94267.925299844875	10
0	3040	94546.358731018496	9
0	3044	94681.797138428604	10
0	3046	94727.911391430564	11
0	3052	94811.345909247964	12
0	3054	95088.130651525652	13
0	3056	95097.854412604371	12
0	3069	95170.741966579038	13
0	3071	95174.512442631217	12
0	3080	95478.403736261221	11
0	3084	95508.85047301848	10
0	3097	95813.124874273432	9
0	3101	95876.946148966941	8
0	3109	96042.689934071401	7
0	3113	96078.635475525749	6
0	3122	96246.793183172599	7
0	3128	96400.295041909256	8
0	3130	96406.578587002081	9
0	3132	96700.562077757219	8
0	3141	96882.611289193424	7
0	3145	96963.944728635442	8
0	3151	97134.27998187751	9
0	3157	97381.023039707272	10
0	3164	97490.51100179751	9
0	3168	97557.795865630301	8
0	3177	98142.316639112376	9
0	3184	98186.595753209783	8
0	3188	98276.173507977525	7
0	3196	98385.906389693925	8
0	3202	98461.367299335195	7
0	3210	98653.874457592423	8
0	3212	98912.201024015936	7
0	3221	99171.47338772315	8
0	3223	99357.947097208396	9
0	3230	99562.992310916576	8
0	3238	99656.896704394618	7
0	3247	99965.507445523633	6
0	3255	100084.363865786339	7
0	3261	100224.521245306326	8
0	3263	100279.189743135372	7
0	3267	100357.516035196874	6
0	3271	100813.443434421221	5
0	3285	101342.183384338512	4
0	3289	101382.423832868817	5
0	3295	101649.483919424508	4
0	3313	102065.81767368714	3
0	3317	102159.237986003552	2
0	3321	102671.929441187843	3
0	3327	102696.114395965139	2
0	3331	102753.764160797462	3
0	3337	102777.028523285787	4
0	3339	102942.862905303135	3
0	3348	103098.444304574508	4
0	3350	103370.400483610227	3
0	3354	103489.913487007414	2
0	3372	104123.144772129252	1
0	3380	104149.645675254558	0
0	3434	106100.751644855651	1
0	3436	106208.350460761495	0
0	3454	106387.25641855698	1
0	3466	106563.284109534561	0
0	3470	106646.309080400984	1
0	3472	106743.79329099908	2
0	3478	106824.427988749961	3
0	3489	107266.028292186176	4
0	3491	107505.984216110646	3
0	3495	107629.825801885874	4
0	3497	107648.232301296003	3
0	3505	107830.112366826061	4
0	3512	107961.646038766616	3
0	3516	107977.156470261605	4
0	3518	108033.711667706003	5
0	3520	108053.396810852268	6
0	3522	108122.061824511676	7
0	3524	108150.164175340243	6
0	3533	108431.25227144422	7
0	3544	108765.230064003596	8
0	3550	108821.663785578548	7
0	3559	108966.417337868028	6
0	3563	108989.189750296941	7
0	3565	109017.865687759159	8
0	3567	109067.302065574833	7
0	3571	109113.350507208383	8
0	3581	109451.524581768819	7
0	3585	109477.104152690285	6
0	3589	109477.725956081829	7
0	3591	109492.171171489489	8
0	3593	109492.652737809957	9
0	3605	110205.04692005436	10
0	3607	110234.50052482859	11
0	3613	110351.338150204956	10
0	3621	110718.212779135712	9
0	3630	110815.658986719542	10
0	3632	110955.241620901638	9
0	3636	111023.481560833268	10
0	3638	111064.387981585565	11
0	3644	111247.788572685658	10
0	3653	111367.523491371089	9
0	3662	111439.41603155317	10
0	3664	111485.556703625613	11
0	3674	111977.7603053559	10
0	3678	112085.120548189625	11
0	3680	112311.953579605826	10
0	3684	112332.126079450958	9
0	3693	112533.041258642315	8
0	3697	112695.095586386109	9
0	3708	112964.398362138155	10
0	3715	113086.343415306746	9
0	3719	113225.770815748387	8
0	3732	113609.035289109954	7
0	3736	113751.671418635538	8
0	3742	113872.388977006326	9
0	3744	114003.634106630324	8
0	3748	114017.654406362483	7
0	3752	114021.532376624084	8
0	3763	114617.029812751078	9
0	3770	114769.929399739617	8
0	3782	115057.828760669995	9
0	3784	115121.940676988372	8
0	3798	115525.124786684154	7
0	3802	115555.205845672303	6
0	3806	115691.922419072687	7
0	3816	116269.437318195142	8
0	3818	116325.549286613797	9
0	3820	116391.390387974878	10
0	3827	116425.112949144899	11
0	3829	116526.76723970506	12
0	3831	116530.475931094824	11
0	3835	116542.583959968099	10
0	3839	116559.795309883528	11
0	3841	116757.157474036926	10
0	3845	116765.175548361561	11
0	3852	116813.841236281478	12
0	3854	116880.910949268648	11
0	3858	116910.608902250752	12
0	3860	116960.818133916905	13
0	3875	117609.873159829653	14
0	3882	117725.540047863634	15
0	3884	117907.491185418925	16
0	3886	117913.238786261195	15
0	3890	118173.223632315038	14
0	3898	118191.468918938501	15
0	3909	118453.816483215699	14
0	3913	118849.834751065487	13
0	3917	118896.469280125438	12
0	3925	119066.086414978446	13
0	3932	119350.09023646006	14
0	3939	119722.305531266743	13
0	3947	119731.085906633446	12
0	3956	119965.593574570357	11
0	3960	120033.074358110195	12
0	3966	120506.689588155264	11
0	3970	120736.911449664543	10
0	3983	120986.791978785107	9
0	3992	121328.889434715649	10
0	3994	121364.559066260099	9
0	3998	121403.362658762206	10
0	4000	121612.760397147054	9
0	4012	121850.476127573559	8
0	4016	122135.252690051204	9
0	4018	122235.96785340079	10
0	4020	122376.810242828503	11
0	4032	122548.551244327664	10
0	4036	122631.681566284308	9
0	4044	122899.274306279012	10
0	4046	122960.972881068279	11
0	4052	123063.760110053832	10
0	4056	123577.494682149827	9
0	4070	123633.151686349222	8
0	4074	123714.55328749541	9
0	4076	123890.086693957337	10
0	4082	124245.210391769051	9
0	4090	124275.714527072458	10
0	4097	124315.166504371578	9
0	4101	124388.252454073438	8
0	4110	124513.272856773042	9
0	4112	124663.723061585239	10
0	4114	124832.477621407518	9
0	4118	124865.147554039432	10
0	4133	125442.485801690777	11
0	4135	125505.341320672869	10
0	4139	125509.043292540724	9
0	4143	125713.463217960009	8
0	4147	125874.193685205519	7
0	4151	125887.530155194054	8
0	4162	126101.320788642976	9
0	4164	126152.091771667701	10
0	4175	126358.684649195189	9
0	4184	126680.062357338011	8
0	4188	126775.507623130521	9
0	4194	127014.784904324909	10
0	4196	127281.972372279772	9
0	4200	127441.920032788018	10
0	4206	127514.935370746667	9
0	4215	127615.223689219771	10
0	4222	128172.499571794506	11
0	4224	128198.317201034436	10
0	4228	128212.603415662289	9
0	4236	128285.017004572261	10
0	4242	128498.555124732546	11
0	4244	128527.014720001528	10
0	4248	128780.351135695219	9
0	4257	128829.585204432328	10
0	4264	128906.897969997879	11
0	4266	128913.304824149734	12
0	4268	128950.301831762905	11
0	4272	129257.804021278262	10
0	4280	129356.566448659491	11
0	4282	129434.091394440541	10
0	4290	129609.966287862177	9
0	4294	129616.966469623056	10
0	4296	129802.822961573313	11
0	4307	130327.646063993573	12
0	4309	130398.266379462421	11
0	4318	130727.037880688941	12
0	4320	130868.914189587946	11
0	4328	130943.516036206195	10
0	4332	130971.454799214244	9
0	4336	131099.825746070245	10
0	4343	131282.847547201157	11
0	4349	131857.445880586147	10
0	4353	132101.886656740019	9
0	4362	132174.330460294499	10
0	4364	132215.001188505109	9
0	4368	132327.363076067732	10
0	4370	132568.686745056748	9
0	4383	132847.538201715159	10
0	4385	132929.610309701081	9
0	4389	133161.740188630058	10
0	4391	133198.819131355401	9
0	4395	133276.508085942329	10
0	4397	133356.889226817796	9
0	4410	133680.63820377165	8
0	4414	133713.706557051549	7
0	4418	133833.565434530574	8
0	4425	133990.435049401668	9
0	4427	134057.097764172862	8
0	4431	134109.712977858125	7
0	4439	134278.405253057765	8
0	4446	134420.32939935815	7
0	4463	134990.967330853772	8
0	4470	135173.225572192381	7
0	4474	135248.977915124833	6
0	4478	135454.436731974794	7
0	4498	135980.168132658717	6
0	4502	135991.136292307793	7
0	4504	135998.60275264763	8
0	4506	136094.837755376338	7
0	4514	136275.546139003049	6
0	4527	136794.337358688115	7
0	4529	136800.983796836148	6
0	4533	136808.807162883334	7
0	4535	136837.468956585643	6
0	4548	137020.33177912408	5
0	4552	137179.614422690975	6
0	4554	137540.955184546979	7
0	4560	137802.70715364189	6
0	4564	137805.017299118142	7
0	4566	137874.57770685446	6
0	4575	138008.005499421575	7
0	4577	138074.423548655449	6
0	4590	138647.658821630893	5
0	4594	138793.915145759337	6
0	4596	138925.571479064068	7
0	4598	138939.347789959847	6
0	4602	138948.389225014757	5
0	4606	138985.412138390956	4
0	4614	139188.884482683479	3
0	4623	139617.732051599441	2
0	4631	139736.436031164467	1
0	4635	139811.993610918318	2
0	4642	140203.881396105958	3
0	4644	140224.953566761028	2
0	4648	140289.608970794497	1
0	4652	140312.239718936327	2
0	4654	140374.427007960021	1
0	4663	140661.114680003527	2
0	4665	140678.554951932854	3
0	4671	140872.926370279729	2
0	4693	141709.890745976307	3
0	4695	141756.131807107149	2
0	4703	141827.148711503755	1
0	4707	141855.352275139638	2
0	4714	142384.647782595694	1
0	4718	142449.851356722682	2
0	4720	142729.22460282163	3
0	4722	142748.935006083261	2
0	4735	143157.013983501849	3
0	4737	143215.568220715641	2
0	4745	143416.653885694087	1
0	4754	143723.062571150816	2
0	4756	143727.066411392936	3
0	4758	143786.422852733444	2
0	4767	143956.94367664647	1
0	4779	144621.609705532602	2
0	4781	144636.857811624051	1
0	4785	144890.719788672269	0
0	4805	145435.053144448437	1
0	4807	145493.464374535322	2
0	4809	145536.929107147872	1
0	4831	145793.081994281948	0
0	4916	149126.074040497115	1
0	4931	149325.772455961754	0
0	5011	152466.816606264607	1
0	5013	152482.544685373529	2
0	5020	152584.213807244247	3
0	5022	153039.984621007117	2
0	5026	153067.172179338127	3
0	5037	153719.321700311869	2
0	5051	153910.400652279349	1
0	5063	154384.057890486094	0
0	5094	155126.363062659381	1
0	5100	155199.717094328391	0
0	5136	156795.664870672586	1
0	5142	156894.97502948229	0
0	5156	157196.763542955592	1
0	5158	157245.851416097284	0
0	5166	157559.35147016092	1
0	5168	157585.784189680416	2
0	5170	157692.333812741548	3
0	5181	157842.880566552282	2
0	5190	158381.244160526694	1
0	5194	158513.016994282604	0
0	5228	159228.701777166292	1
0	5230	159298.003058567644	0
0	5234	159429.793009370189	1
0	5244	160050.487580621426	0
0	5314	162288.477602083795	1
0	5316	162437.666975163874	0
0	5366	164114.729258401861	1
0	5377	164343.794120565971	0
0	5387	164889.494446705881	1
0	5389	164944.06121246653	2
0	5413	165442.442297950314	3
0	5415	165553.698279066165	2
0	5423	165764.790155605396	1
0	5427	165857.795057680853	0
0	5431	165984.103633524609	1
0	5433	166089.702714225431	0
0	5442	166231.947479266361	1
0	5444	166410.578074919467	2
0	5446	166656.427375702341	1
0	5450	166677.926903243835	2
0	5456	166818.738055133244	1
0	5465	166941.406465394213	2
0	5467	167140.872314823787	3
0	5469	167142.650695901759	2
0	5473	167213.903317513264	3
0	5475	167257.358923738809	4
0	5477	167415.996748281682	5
0	5479	167542.071475207262	6
0	5481	167712.885622708281	5
0	5494	167850.622584144182	6
0	5500	168193.528215938231	5
0	5504	168207.265372029033	6
0	5511	168392.153767545171	5
0	5524	168826.395220896383	4
0	5528	168944.19368551763	3
0	5537	169300.011398274221	4
0	5543	169388.403599029561	3
0	5547	169449.255180780239	2
0	5555	169864.946454344471	1
0	5564	170419.536934001525	0
0	5589	170780.896791393577	1
0	5591	170874.955462835287	2
0	5593	171037.896948410352	1
0	5601	171251.126506249434	0
0	5615	171380.591685667584	1
0	5617	171437.125725680254	0
0	5621	171477.838689661008	1
0	5623	171826.8469595445	0
0	5676	173338.948508565465	1
0	5678	173342.945325786993	2
0	5680	173450.895511536082	1
0	5689	173597.106108031229	2
0	5691	173598.773216303926	3
0	5693	173665.23618703384	2
0	5701	173975.40613445426	3
0	5708	174034.544994011387	2
0	5720	175033.075227057716	1
0	5729	175144.9481461351	0
0	5744	175392.245737809766	1
0	5746	175495.177597743307	2
0	5756	175978.905494737917	1
0	5765	176004.376007073113	0
0	5799	177294.296867446944	1
0	5806	177425.238335050812	2
0	5808	177543.109158918665	1
0	5812	177560.038976076537	0
0	5816	177611.778418417847	1
0	5823	177820.552833812406	0
0	5827	177993.001307948825	1
0	5846	178437.667113289641	0
0	5854	178754.189107312211	1
0	5861	179049.534250985378	0
0	5947	181740.823058671728	1
0	5949	181746.10573805604	2
0	5956	181974.853566582258	1
0	5960	182073.03790535633	0
0	5968	182252.433579928926	1
0	5970	182299.314672197159	0
0	5974	182411.353558848863	1
0	5976	182484.645383098454	2
0	5988	182938.475485066827	1
0	5992	182959.100679883087	0
0	6056	185360.822712198538	1
0	6058	185382.420741098835	2
0	6060	185395.050353670308	1
0	6064	185644.626019894851	2
0	6070	185932.022127152838	1
0	6083	186321.054047958411	0
0	6147	188589.896017173013	1
0	6154	188642.658171941015	2
0	6160	188952.635039198836	3
0	6162	188993.36417438919	2
0	6170	189475.056875763983	3
0	6172	189481.303469757373	2
0	6176	189522.106307774492	1
0	6180	189539.319661072288	2
0	6187	189590.263657913232	3
0	6189	189894.860540625556	4
0	6191	189929.56610228383	3
0	6200	190023.562098466701	2
0	6208	190137.261190034159	1
0	6217	190231.693107549819	2
0	6219	190256.91191813908	3
0	6221	190387.434191326434	2
0	6225	190453.544827462084	1
0	6242	190838.372859946048	2
0	6244	190889.877520084091	1
0	6248	191012.539247223086	0
0	6252	191109.412491370668	1
0	6254	191308.707139105446	0
0	6350	195548.490639651044	1
0	6352	195606.715007159958	2
0	6372	195865.842969959596	1
0	6376	195942.434767178782	0
0	6380	195986.931759462291	1
0	6382	196526.933093589543	0
0	6386	196602.478190341138	1
0	6388	196651.795035529884	2
0	6394	196737.577986396602	3
0	6405	196849.160819074133	2
0	6409	196889.295152463774	3
0	6420	197599.548133119532	2
0	6424	197622.000687017935	3
0	6430	198092.662646543978	2
0	6434	198132.697129642585	1
0	6448	198648.586205459722	0
0	6456	198902.083157403464	1
0	6472	199490.105994326988	0
0	6546	201786.826394714459	1
0	6553	201966.055863395207	0
0	6571	202402.404104392377	1
0	6573	202419.2975817694	0
0	6577	202638.860464603315	1
0	6584	202676.007818932157	0
0	6588	202871.176504791003	1
0	6590	202887.41022236378	0
0	6639	204683.625079761376	1
0	6641	204695.872403218375	2
0	6643	204808.125292784341	3
0	6650	204842.175110042048	2
0	6658	204913.084705975651	1
0	6662	205125.595080643102	0
0	6671	205464.266863650797	1
0	6681	205692.425447682025	2
0	6683	205963.730355597985	1
0	6692	206254.580945913493	0
0	6790	209490.101375477652	1
0	6792	209567.920153874787	0
0	6806	209822.833403000899	1
0	6808	209879.878007794027	0
0	6861	211765.310948961695	1
0	6863	211822.154409171277	0
0	6923	214173.405148471483	1
0	6925	214366.600265974665	2
0	6927	214399.775528147517	1
0	6953	215082.160975500968	2
0	6955	215101.841043171784	3
0	6957	215257.004536848112	2
0	6961	215486.832990529145	1
0	6965	215499.243433236776	0
0	6973	215550.993458506621	1
0	6975	215636.185841061129	2
0	6977	215861.27911089141	3
0	6979	215923.298896390665	4
0	6981	216037.343709436283	5
0	6988	216263.41985149271	6
0	6990	216280.93946568122	5
0	6994	216492.673476035298	6
0	7005	216767.383188392564	5
0	7014	217013.566588079911	6
0	7016	217028.198723777829	5
0	7020	217075.95434926607	6
0	7026	217324.354155793486	5
0	7039	217594.232589681515	6
0	7046	217859.899522544945	5
0	7050	217905.90182377368	4
0	7058	218211.36026722525	3
0	7066	218545.691776557934	4
0	7068	218818.0355835863	5
0	7070	219017.812424398659	4
0	7079	219033.317457692827	3
0	7083	219100.491566929563	2
0	7092	219432.946169361172	1
0	7096	219554.133552964845	2
0	7098	219557.713182254699	3
0	7113	219880.917301072096	4
0	7115	219952.320342167022	5
0	7117	219962.473663754115	6
0	7119	220013.044486820363	7
0	7121	220290.087936419591	6
0	7125	220337.214209869204	5
0	7129	220393.381824966213	6
0	7131	220441.645600939299	5
0	7149	220751.983518480319	6
0	7159	221203.004868102321	7
0	7161	221237.557933436425	8
0	7163	221451.759091274942	7
0	7167	221738.65619084209	6
0	7171	221807.256230610952	5
0	7175	221828.791310116161	6
0	7177	221859.113374987272	7
0	7179	221882.993870663957	8
0	7186	222070.153344189924	9
0	7193	222381.869142012359	10
0	7195	222447.706639062428	11
0	7197	222459.802843636571	12
0	7203	222678.287319898305	11
0	7207	222687.363175409044	10
0	7215	222780.507956205872	11
0	7217	222806.223857366061	12
0	7219	222834.900367216705	13
0	7221	222871.284278699015	14
0	7223	222882.219890217826	13
0	7232	223139.433939227964	12
0	7236	223196.062970742283	11
0	7244	223334.291751730785	10
0	7253	223622.402578237668	11
0	7255	223994.993440999566	12
0	7271	224283.265768821881	11
0	7279	224397.045773634817	10
0	7283	224589.747305055802	11
0	7285	224591.783048532603	10
0	7289	224635.0082489013	11
0	7291	224758.737407544758	10
0	7299	224844.501590390456	11
0	7306	225060.741981129692	10
0	7314	225401.554948698328	9
0	7318	225521.914536900518	8
0	7327	225743.279187867781	9
0	7334	226062.728707399488	10
0	7336	226238.941126870122	9
0	7354	226731.250055692933	10
0	7356	226828.609309330282	9
0	7364	226959.318971868203	8
0	7368	227133.717972441526	9
0	7378	227475.492425379987	10
0	7385	227800.034291776028	9
0	7389	227853.256373688278	8
0	7402	228284.118966674257	9
0	7404	228464.282086188105	8
0	7408	228524.412816810952	7
0	7412	228533.475863302383	8
0	7418	228853.851150482592	7
0	7427	228877.944083282855	6
0	7431	228902.640526107368	7
0	7433	229007.698457043901	8
0	7435	229141.485116736708	9
0	7442	229186.276386351148	10
0	7444	229196.830685818773	11
0	7450	229243.22388287088	10
0	7454	229430.24706160721	11
0	7456	229531.805079900195	12
0	7463	229738.738054110506	13
0	7465	229776.405802514153	14
0	7467	229884.34773498361	13
0	7475	230085.146023436025	14
0	7481	230436.129711106119	13
0	7499	230864.367284657565	12
0	7503	230903.708847995447	11
0	7507	230935.139642631843	12
0	7514	231173.226508583473	11
0	7518	231394.836674131153	10
0	7522	231400.969238536564	9
0	7526	231410.47577504384	10