version 2
run Iteration-77-20200521-09:55:55-71724
attr configname Iteration
attr datetime 20200521-09:55:55
attr experiment Iteration
attr inifile omnetpp.ini
attr iterationvars "$i=9, $j=2, $0=15-(9+2)"
attr iterationvarsf i=9,j=2,15-(9+2)-
attr measurement "$i=9, $j=2, $0=15-(9+2)"
attr network Network
attr processid 71724
attr repetition 0
attr replication #0
attr resultdir results
attr runnumber 77
attr seedset 77
itervar i 9
itervar j 2
param **.resourcePool.amount 9
param **.resourcePool1.amount 2
param **.resourcePool2.amount 15-(9+2)
param **.source.interArrivalTime exponential(6min)
param **.delay.delay uniform(4min,28min)
param **.delay1.delay uniform(10min,28min)
param **.delay2.delay uniform(4min,16min)
param **.allocate.resourceModuleName "\"Network.resourcePool\""
param **.allocate1.resourceModuleName "\"Network.resourcePool1\""
param **.allocate2.resourceModuleName "\"Network.resourcePool2\""
param **.deallocate.resourceModuleName "\"Network.resourcePool\""
param **.deallocate1.resourceModuleName "\"Network.resourcePool1\""
param **.deallocate2.resourceModuleName "\"Network.resourcePool2\""
param **.router.randomGateIndex "uniform(0, 1) > 0.2 ? 0 : 1"

vector 0 Network.allocate queueLength:vector ETV
attr interpolationmode sample-hold
attr title "queue length, vector"
vector 1 Network.allocate1 queueLength:vector ETV
attr interpolationmode sample-hold
attr title "queue length, vector"
vector 2 Network.allocate2 queueLength:vector ETV
attr interpolationmode sample-hold
attr title "queue length, vector"
vector 3 Network.sinkStat lifeTime:vector ETV
attr interpolationmode none
attr title "lifetime of arrived jobs, vector"
attr unit s
vector 4 Network.sink lifeTime:vector ETV
attr interpolationmode none
attr title "lifetime of arrived jobs, vector"
attr unit s
0	0	0	0
1	0	0	0
1	26	2070.036806526075	1
1	29	2242.465222026405	2
1	32	2392.64194227881	3
1	34	2422.979906937933	2
1	45	2965.731785754394	1
1	55	3060.226181714201	2
1	68	3662.013407408029	3
1	70	3837.127272040478	2
1	76	3924.136736774769	3
1	85	4505.235723229777	2
1	94	4681.166157140098	3
1	97	4744.892702799973	4
1	112	5434.463997567899	3
1	118	5455.865538502765	4
1	125	5767.175760377076	5
1	128	5838.493911569433	6
1	130	5867.280753255542	5
1	136	6257.921810662956	6
1	149	6769.049796657014	7
1	151	6783.154123174678	6
1	156	7091.092324648879	5
1	171	7462.213334516342	4
1	177	7527.08721665399	5
1	196	8053.698286591924	4
1	211	8371.059417931977	5
1	217	8519.690931749551	6
1	219	8540.969817629735	5
1	225	8621.749044244565	6
1	235	8683.054946443017	7
1	238	8891.260180729085	8
1	245	9059.33467032543	9
1	251	9125.634976144211	10
1	254	9338.743922801555	11
1	256	9349.617624190531	10
1	262	9471.315530697446	11
1	265	9818.365165022508	12
1	275	10029.399702031802	13
1	280	10196.18669088995	12
1	292	10593.3813045247	13
1	295	10620.91512678313	14
1	301	10795.553104692034	13
1	314	11109.513592855595	14
1	316	11245.71532056732	13
1	322	11587.736427269894	14
1	329	11825.664650220112	15
1	331	11865.110082785494	14
1	349	12502.873813126971	15
1	361	12736.610758118982	14
1	379	12889.711419355482	15
1	382	13190.217826635576	16
1	387	13231.589944419346	15
1	396	13312.074007871393	16
1	402	13503.600018314103	17
1	405	13523.437558733246	18
1	408	13576.771018238598	19
1	415	13758.997042246847	20
1	428	13958.970662699538	21
1	431	14016.068674563481	22
1	433	14225.589962602312	21
1	438	14332.017138545296	20
1	444	14439.236942618763	21
1	447	14477.804462440373	22
1	453	14716.948255558653	23
1	456	14717.96235516659	24
1	459	14816.37454632722	25
1	470	15160.30993609536	26
1	472	15195.601389548636	25
1	477	15490.98135650223	24
1	501	16160.429614885605	23
1	507	16276.834170006644	24
1	509	16316.161468849237	23
1	529	16670.843060073836	24
1	532	16757.49275605153	25
1	535	16903.385206635819	26
1	537	16973.566824095975	25
1	543	17091.765078319838	26
1	545	17197.437568158738	25
1	551	17235.469100397191	26
1	571	18015.909985295392	25
1	577	18166.728642043724	26
1	580	18214.256734006815	27
1	585	18538.68653743593	26
1	601	18950.295156427169	27
1	603	19154.415553902171	26
1	613	19367.409927906499	27
1	619	19826.043226744747	28
1	625	20026.736540562194	27
1	631	20039.933009872601	28
1	634	20139.700476483775	29
1	646	20450.800986586379	30
1	648	20587.153366600059	29
1	663	20922.054756181967	28
1	680	21508.646165353958	29
1	686	21592.510677960982	30
1	689	21682.779739987998	31
1	691	22117.946840106405	30
1	697	22139.060283545855	31
1	703	22338.168401227358	32
1	711	22551.998203360197	31
1	721	22845.790980474486	32
1	723	23032.577430355258	31
1	733	23380.654096599313	32
1	735	23414.506359566656	31
1	744	23563.838651250679	32
1	758	23998.152760156395	33
1	761	24003.451937027679	34
1	763	24020.558705023385	33
1	769	24110.324132212196	34
1	774	24207.383180773539	33
1	791	24607.030202993178	34
1	799	25101.7940546953	33
1	805	25443.941161743971	34
1	811	25546.718355855627	33
1	817	25759.667927386498	34
1	830	26146.661110065621	35
1	838	26430.523267398311	34
1	850	26547.283232127409	35
1	852	26586.921213838167	34
1	865	27200.6008361843	35
1	868	27282.72180790643	36
1	871	27349.042998196355	37
1	878	27400.525674001232	38
1	881	27462.744834059319	39
1	886	27753.619071702196	38
1	899	28147.442683639435	39
1	901	28153.552607522241	38
1	913	28338.098411283242	39
1	931	28964.00845705597	38
1	936	29073.504223777808	37
1	945	29129.489090465728	38
1	948	29192.194129111273	39
1	954	29263.085464534935	40
1	960	29340.718949149077	41
1	973	29497.842705767943	42
1	976	29664.820322850284	43
1	979	29700.670417578794	44
1	991	30072.858972270696	43
1	997	30078.413253793879	44
1	1000	30106.246326162642	45
1	1007	30430.734229977411	46
1	1012	30599.175041756488	45
1	1018	30616.49483962964	46
1	1021	30907.155134131438	47
1	1024	31091.162446380477	48
1	1031	31384.756747584027	49
1	1033	31402.325559259115	48
1	1045	31698.519204914744	49
1	1057	32257.455047164939	48
1	1069	32538.216098202218	49
1	1075	32648.429173548429	48
1	1087	33046.08677858112	49
1	1097	33241.607695358175	50
1	1100	33305.138220069343	51
1	1103	33421.048083853793	52
1	1106	33505.015819887473	53
1	1108	33555.472457837968	52
1	1114	33580.9473612178	53
1	1116	33800.91036232271	52
1	1122	33813.938979295	53
1	1135	34103.293039959568	54
1	1144	34420.528953420653	53
1	1150	34562.252435170668	54
1	1152	34770.493834950856	53
1	1162	35075.48184643448	54
1	1171	35512.351368480085	53
1	1177	35872.362611485707	54
1	1179	35950.850502998463	53
1	1185	36087.212316178304	54
1	1194	36637.172095236263	53
1	1200	36764.63624648644	54
1	1208	36903.195660422279	53
1	1224	37217.413369467408	54
1	1231	37483.087220795899	55
1	1233	37631.977437698177	54
1	1238	37711.069264095931	53
1	1254	38041.570935140794	54
1	1265	38366.611513358635	55
1	1268	38579.3752261618	56
1	1276	38928.729107082716	55
1	1282	38985.771799651686	56
1	1288	39185.827026772059	57
1	1294	39336.147105498894	56
1	1307	39692.722446100122	57
1	1315	40159.392458359606	56
1	1321	40184.45375495262	57
1	1323	40188.355177259727	56
1	1329	40461.398646294905	57
1	1336	40735.74427024849	58
1	1342	40946.432084563083	57
1	1351	41614.620703157128	58
1	1356	41807.055051848947	57
1	1370	42386.139209731893	58
1	1372	42429.107763907596	57
1	1377	42539.204168283275	56
1	1383	42698.483810146764	57
1	1402	43397.304020850814	56
1	1408	43496.971082802597	57
1	1410	43592.995734569341	56
1	1419	43838.135120004023	57
1	1425	43998.920459729514	56
1	1442	44473.483856525097	57
1	1445	44598.88512315512	58
1	1462	45064.666278660953	57
1	1468	45175.691280424505	58
1	1471	45276.621679206236	59
1	1473	45289.086680776334	58
1	1479	45295.968327929674	59
1	1489	45719.166653706604	60
1	1496	45826.293771262427	61
1	1501	45936.955616465664	60
1	1507	46008.394481958761	61
1	1513	46342.383731734663	60
1	1522	46599.755863605794	61
1	1534	46892.514656512892	60
1	1542	46982.062889626905	59
1	1548	47197.845407782262	60
1	1551	47291.950355663996	61
1	1554	47409.064865090334	62
1	1561	47716.545595886127	63
1	1563	47788.157836180836	62
1	1579	48206.828914514557	63
1	1581	48372.519822717538	62
1	1590	48474.811175808466	63
1	1592	48502.779724272624	62
1	1615	49271.389891327393	63
1	1618	49277.575285903255	64
1	1628	49424.895002132906	65
1	1631	49630.809067321984	66
1	1634	49742.763321734369	67
1	1639	49890.816143379441	66
1	1644	49946.474652151302	65
1	1663	50469.003692807604	66
1	1670	50700.610655692511	67
1	1672	50826.928962460613	66
1	1681	51086.205782213223	67
1	1687	51284.645971647189	66
1	1693	51383.136215771993	67
1	1696	51523.003696109756	68
1	1699	51581.547925647436	69
1	1701	51634.322279059222	68
1	1723	52212.493879341894	69
1	1726	52294.761185052004	70
1	1728	52364.888361497676	69
1	1734	52494.321582884825	70
1	1747	52660.990271806375	71
1	1753	52833.407356143654	70
1	1759	52964.86819371327	71
1	1762	53000.120865167527	72
1	1774	53933.081983682593	71
1	1779	53933.649411211447	70
1	1791	54553.527170774252	69
1	1800	54686.680023019096	68
1	1806	54921.062973702018	69
1	1809	54939.951091009897	70
1	1820	55316.741395449999	71
1	1822	55547.394509865796	70
1	1827	55861.047394201816	69
1	1838	56181.026676065182	68
1	1855	57091.944768845109	69
1	1862	57240.766901314171	70
1	1864	57241.543703647987	69
1	1869	57536.285970165288	68
1	1875	57669.553988334857	69
1	1881	58010.830099350498	68
1	1894	58389.594267300224	67
1	1903	58935.979120275662	66
1	1920	59851.967532309598	65
1	1930	60162.596426183555	66
1	1932	60209.905073093907	65
1	1941	60307.201081216763	66
1	1944	60497.263233060933	67
1	1964	60858.215415880178	68
1	1967	60900.981536685067	69
1	1970	61031.958011297754	70
1	1972	61479.741588720015	69
1	1978	61696.226459161281	70
1	1980	61883.228595024632	69
1	1990	62224.174052266784	70
1	1992	62371.443092916987	69
1	2011	62996.660281578736	68
1	2017	63070.372833295878	69
1	2019	63294.352384238399	68
1	2044	64181.980674761243	67
1	2049	64182.430843264522	66
1	2055	64193.719525886932	67
1	2058	64399.955587111348	68
1	2061	64605.347258633728	69
1	2064	64743.942436330047	70
1	2070	64989.608345097758	69
1	2079	65109.606309645535	68
1	2085	65265.869425070804	69
1	2107	65940.549679557519	68
1	2116	66241.478231040248	69
1	2118	66340.657676114597	68
1	2128	66619.109741386985	69
1	2131	66648.471220422077	70
1	2133	66726.252038824098	69
1	2139	66787.232818037353	70
1	2150	67092.363201921559	71
1	2152	67207.455896307611	70
1	2164	68219.970824318664	69
1	2169	68264.019439295762	68
1	2175	68339.526421352166	69
1	2181	68974.687306341441	68
1	2203	69906.398884701439	67
1	2208	69980.571060600416	66
1	2214	70096.183900023416	67
1	2217	70199.360907146058	68
1	2220	70199.547614171925	69
1	2243	70733.735002655445	70
1	2245	71136.061268766307	69
1	2250	71156.981805070029	68
1	2260	71601.495650477975	69
1	2267	71750.999549517541	70
1	2270	71897.532255925018	71
1	2275	72428.337001102873	70
1	2283	72685.574525576742	69
1	2295	72982.086728948347	70
1	2306	73290.540263680383	71
1	2308	73346.835354027064	70
1	2314	73585.384547138423	71
1	2317	73907.32471078749	72
1	2319	73989.688534066909	71
1	2331	74233.495848300593	70
1	2351	75109.614228156045	71
1	2356	75218.796138903954	70
1	2362	75361.666320836459	71
1	2368	75700.007761419338	72
1	2373	75877.215714418056	71
1	2393	76323.842250489158	72
1	2395	76432.761946218916	71
1	2404	76470.768784011299	72
1	2407	76475.830268875618	73
1	2410	76565.412866553675	74
1	2413	76632.621245564399	75
1	2419	76776.670404785039	74
1	2434	77477.785431942096	75
1	2439	77575.276874239453	74
1	2455	77645.453003660665	75
1	2458	77879.725972556064	76
1	2461	77901.801835607949	77
1	2464	77998.41984045003	78
1	2471	78279.609265104748	79
1	2473	78280.373453414725	78
1	2479	78632.394379683287	79
1	2481	78736.304933085003	78
1	2506	79660.501374947565	77
1	2511	79701.236666963332	76
1	2517	79774.669764868122	77
1	2520	79919.070195907957	78
1	2527	80174.618932454535	79
1	2530	80202.125899848918	80
1	2535	80316.440701885807	79
1	2551	81017.134392727994	78
1	2557	81031.783903627272	79
1	2562	81717.008058662423	78
1	2577	81951.02617302044	77
1	2596	82301.682751063811	78
1	2599	82323.638666634976	79
1	2612	82787.342302054728	80
1	2615	82789.944334425923	81
1	2617	82870.234117983737	80
1	2625	83208.588942867431	79
1	2631	83217.322612012377	80
1	2637	83385.652602941678	81
1	2643	83482.981290295137	82
1	2650	83528.496312646362	83
1	2653	83634.705682631674	84
1	2656	83664.568471106892	85
1	2663	83719.873143978321	86
1	2671	84021.214638036572	85
1	2676	84313.499566708419	84
1	2682	84397.61851564619	85
1	2685	84421.696076664759	86
1	2691	84820.924246488502	87
1	2702	85152.901502486226	88
1	2707	85261.045798669466	87
1	2718	85448.38632095671	86
1	2731	85836.069147496491	87
1	2733	86009.777594535508	86
1	2742	86277.991039014637	87
1	2745	86293.824367973608	88
1	2751	86362.369759968209	87
1	2767	86815.647965799444	88
1	2773	87070.371941449948	87
1	2779	87184.434340403917	88
1	2785	87253.173778115076	89
1	2787	87272.657160135644	88
1	2796	87379.635392134892	89
1	2803	87755.52612063766	90
1	2821	88503.309553406097	89
1	2832	88941.272827648284	88
1	2838	89039.2080294477	89
1	2841	89106.861872435091	90
1	2844	89128.716088571911	91
1	2851	89235.676014616617	92
1	2854	89267.68407296379	93
1	2861	89414.302315545928	94
1	2864	89587.211356761259	95
1	2869	89656.0288064842	94
1	2881	90181.303084777689	95
1	2887	90291.488816524582	94
1	2893	90486.989415474475	95
1	2903	90944.988192953561	96
1	2905	90978.932681391673	95
1	2910	91137.339143139206	94
1	2926	91754.778670855694	93
1	2935	91835.934755987383	94
1	2938	91959.729288772182	95
1	2940	92062.626153166132	94
1	2945	92517.916594074004	93
1	2958	93010.320259510266	92
1	2964	93157.056280365112	93
1	2980	93789.286542852306	92
1	2989	94083.750323214116	93
1	2991	94524.244387029397	92
1	2996	94613.027302213841	91
1	3002	94622.943031621993	92
1	3009	95058.819642357686	93
1	3014	95276.622175491142	92
1	3033	96048.083899105796	91
1	3038	96204.931679676014	90
1	3048	96594.23557730985	91
1	3054	96762.486528040991	92
1	3064	97032.732003117639	91
1	3072	97054.802291766637	90
1	3082	97597.90101484511	91
1	3091	97889.987859188219	92
1	3098	97976.365536785067	93
1	3100	98018.367943242851	92
1	3106	98038.130975249417	93
1	3108	98041.500309464418	92
1	3114	98180.295716562086	93
1	3133	98745.50066243923	92
1	3144	98980.901226029628	91
1	3150	99039.459685874286	92
1	3160	99455.849364727888	93
1	3163	99471.137328935164	94
1	3169	99698.520678707284	95
1	3171	99815.451191748389	94
1	3177	99849.698379992977	95
1	3189	100071.96334498069	94
1	3202	100358.414766920676	95
1	3205	100403.419289871359	96
1	3208	100655.93604690103	97
1	3211	100838.805299009326	98
1	3218	101063.780644229311	99
1	3223	101170.502015846678	98
1	3228	101471.317393370632	97
1	3240	101780.362905581378	96
1	3259	102168.674543230592	97
1	3261	102198.655150682393	96
1	3267	102304.847803638286	97
1	3277	102648.680919381686	96
1	3283	102685.601840184742	97
1	3292	103061.875837373885	98
1	3299	103197.660044414122	99
1	3304	103814.785505412805	98
1	3312	103949.052061690845	97
1	3318	104022.349271703182	98
1	3321	104202.039535802236	99
1	3324	104305.262438396809	100
1	3339	104616.051037908259	99
1	3344	104724.159004679777	98
1	3357	105098.398007015445	99
1	3360	105202.083501556488	100
1	3371	105295.109226152053	101
1	3377	105876.214119047399	102
1	3379	106035.952839963797	101
1	3384	106096.631484181516	100
1	3393	106128.229032257237	101
1	3396	106324.094893014015	102
1	3402	106469.292387727982	103
1	3414	106926.913932059787	102
1	3436	107527.814708965599	103
1	3439	107535.843782599299	104
1	3441	107681.605289644289	103
1	3447	107698.386805619189	104
1	3454	107983.448787214753	105
1	3457	108100.588012830374	106
1	3463	108569.966237424768	105
1	3471	108713.079703730258	104
1	3483	108845.079829865514	105
1	3486	108875.135005476394	106
1	3496	109124.00618020224	107
1	3503	109196.964417649847	108
1	3506	109646.892922442434	109
1	3508	109815.814751508541	108
1	3513	109936.732657505858	107
1	3522	110116.716489720348	108
1	3538	110585.633565986987	109
1	3540	110704.852242293663	108
1	3550	110782.92394677557	109
1	3552	110844.570309594932	108
1	3565	111501.287823115371	107
1	3571	111535.018897861589	108
1	3577	111634.077137601525	109
1	3582	111928.32874983615	108
1	3598	112723.66919812733	109
1	3604	112914.117629230849	108
1	3610	112936.871241174034	109
1	3612	113082.91567810877	108
1	3625	113489.93041569435	109
1	3632	113992.622646583663	110
1	3634	114165.041006357137	109
1	3639	114371.340784626908	108
1	3652	114690.327427233521	109
1	3658	114978.04696420574	110
1	3667	115442.542691892672	109
1	3675	115671.610459974862	108
1	3681	115777.643819459272	109
1	3688	116147.518307879008	110
1	3695	116239.274074439794	111
1	3700	116677.110270430229	110
1	3708	117015.087019960124	109
1	3714	117206.489601109123	110
1	3717	117327.76085700487	111
1	3733	118071.109885732539	110
1	3738	118095.842814045686	109
1	3746	118792.386731943943	108
1	3755	118828.231171100128	107
1	3769	119137.547028809137	108
1	3782	119357.698745716067	109
1	3794	119795.577624184551	110
1	3797	119861.617451707926	111
1	3800	120072.281794658657	112
1	3802	120080.274785357255	111
1	3807	120163.922476182588	110
1	3813	120253.335575611301	111
1	3816	120298.906819497669	112
1	3833	120962.53250504516	113
1	3835	120964.762555594452	112
1	3841	120987.705362371438	113
1	3856	121316.259021321971	112
1	3868	121527.153144737022	113
1	3871	121538.684778588171	114
1	3874	121568.377925432482	115
1	3877	121727.805765767755	116
1	3884	122119.642689440343	117
1	3892	122168.325434774988	116
1	3898	122371.694167739762	117
1	3905	122616.651859096962	118
1	3907	122741.253151922215	117
1	3915	123036.930095833623	116
1	3927	123272.700708969015	117
1	3941	123618.287803445489	118
1	3953	124069.972630766453	119
1	3962	124224.210487143326	120
1	3964	124266.193212699805	119
1	3969	124568.381390153327	118
1	3978	124706.498220620888	119
1	3981	124855.684650668123	120
1	3988	124987.768517358473	121
1	3994	125107.169456736606	122
1	4001	125323.670460147304	123
1	4004	125379.535161143147	124
1	4007	125444.443987905828	125
1	4009	125459.371340927565	124
1	4017	125707.917125318859	123
1	4031	126063.478787143106	124
1	4033	126069.779629372889	123
1	4049	126834.85928731184	124
1	4051	127174.718732834522	123
1	4057	127425.198722240154	124
1	4060	127439.443843720065	125
1	4062	127526.665000944296	124
1	4078	128058.076577299003	123
1	4103	128707.968213919881	124
1	4105	128860.289348671873	123
1	4110	129041.523318226347	122
1	4116	129062.993127442331	123
1	4119	129270.225992374173	124
1	4122	129323.933205614425	125
1	4125	129475.713449493579	126
1	4135	129555.832310114427	127
1	4157	129979.658151333485	128
1	4159	130129.128570128893	127
1	4169	130386.286127948542	128
1	4177	130557.474476844902	127
1	4183	130595.327285406287	128
1	4188	130868.064320758646	127
1	4194	130871.316558807122	128
1	4197	130913.188264119889	129
1	4203	130990.871353943448	130
1	4206	131039.500564311749	131
1	4219	131567.105778624033	130
1	4225	131682.329181787068	131
1	4227	131705.093489029343	130
1	4233	131852.206093047169	131
1	4240	132069.656041638208	132
1	4243	132182.374550075197	133
1	4249	132497.378439782848	132
1	4276	133073.415327445502	131
1	4288	133583.529550452674	132
1	4290	133755.331855770861	131
1	4306	133918.696280365755	132
1	4309	133929.361973542557	133
1	4312	133958.689742604617	134
1	4325	134134.921390597025	135
1	4328	134318.259567197279	136
1	4334	134495.684801137768	137
1	4336	134574.235833883946	136
1	4342	134611.322711037197	137
1	4344	134688.005420463989	136
1	4360	135119.813449588878	137
1	4363	135198.332394261028	138
1	4366	135368.291040472277	139
1	4373	135449.046541651381	140
1	4376	135465.587765625843	141
1	4382	135744.393566915091	142
1	4384	135858.454821296697	141
1	4390	135861.314795954115	142
1	4393	135967.971658767873	143
1	4398	136323.261175379987	142
1	4414	136747.686273763617	141
1	4429	137366.169413552349	140
1	4435	137641.740256960197	141
1	4440	137756.607568311404	140
1	4450	137997.161434918826	141
1	4453	138083.433201805485	142
1	4462	138349.475870471943	143
1	4471	138753.798050722938	142
1	4476	138827.66102321512	141
1	4485	139108.774065314552	142
1	4492	139292.299690409265	143
1	4499	139326.474320203368	144
1	4504	139525.043746615489	143
1	4512	139661.946973000553	142
1	4528	140166.50144978858	143
1	4533	140367.6080738482	142
1	4543	140449.003984675479	143
1	4546	140471.904772741411	144
1	4549	140483.423815317395	145
1	4552	140508.067001887025	146
1	4554	140580.015621511926	145
1	4560	140597.514367869371	146
1	4569	141116.193112368515	147
1	4579	141468.851708491062	146
1	4588	141989.768051375535	145
1	4594	142143.044295378421	146
1	4596	142212.120138547112	145
1	4602	142250.842563322655	146
1	4631	143106.796171998208	147
1	4634	143234.202668927255	148
1	4636	143262.235095390019	147
1	4648	143471.584828544402	148
1	4650	143475.34670512258	147
1	4656	143579.665466827611	148
1	4663	143697.882898050385	149
1	4670	143757.576637642648	150
1	4676	143885.813966318287	151
1	4681	144082.05952427416	150
1	4687	144100.293302137542	151
1	4702	144587.216908918529	152
1	4707	144861.51930909687	151
1	4716	144978.736351562773	152
1	4726	145109.835797944544	153
1	4729	145268.381546869435	154
1	4732	145269.479095269362	155
1	4737	145332.670276407813	154
1	4749	145551.526347073238	155
1	4759	145814.461333429885	156
1	4762	145825.76169382206	157
1	4764	145878.66684228265	156
1	4774	146016.399917843512	157
1	4777	146099.38777687314	158
1	4784	146273.937202955816	159
1	4786	146481.151434770686	158
1	4791	146569.469320867871	157
1	4800	146693.725869599718	158
1	4803	146706.915641832678	159
1	4820	147627.401058950864	160
1	4823	147636.898967346505	161
1	4825	147766.66334880582	160
1	4830	147850.996421231789	159
1	4846	148661.633873488308	160
1	4858	149094.033636945201	159
1	4864	149161.290609663322	160
1	4866	149183.061659001475	159
1	4875	149273.415457129179	160
1	4878	149447.410964974941	161
1	4892	149955.611139351347	162
1	4898	150126.446656743739	163
1	4903	150365.667547277076	162
1	4909	150476.018861291747	163
1	4912	150482.851570736456	164
1	4914	150841.745822346499	163
1	4927	151543.295405312171	162
1	4935	151554.934141850932	161
1	4941	151739.906453946679	162
1	4972	152860.427170480503	161
1	4977	152937.093433999186	160
1	4983	152937.721549983012	161
1	4986	153116.715093319582	162
1	4989	153307.945034236981	163
1	4999	153533.524856624095	162
1	5005	153579.827423943072	163
1	5008	153585.459583142373	164
1	5011	153619.844773209338	165
1	5014	153763.058786895825	166
1	5024	153943.674184752296	167
1	5029	154044.986026678895	166
1	5034	154289.619184975414	165
1	5054	155184.505514070661	166
1	5057	155412.456597134863	167
1	5059	155696.245923564499	166
1	5064	155725.652854871838	165
1	5073	156026.990294911519	166
1	5079	156073.178827581546	167
1	5085	156347.637367143443	168
1	5095	156778.088044925495	167
1	5101	156854.787477196635	168
1	5103	156914.047772987475	167
1	5126	157891.153751619441	168
1	5129	158088.868781128351	169
1	5132	158134.92994069521	170
1	5134	158331.640054966225	169
1	5139	158348.306848305007	168
1	5145	158588.443765102726	169
1	5155	159133.994958252376	168
1	5169	159761.666142028658	167
1	5175	159914.165608611004	168
1	5181	160120.526137185013	167
1	5191	160561.863988017296	168
1	5198	160649.83678214219	169
1	5200	160732.970596822812	168
1	5211	161364.622573918393	167
1	5217	161376.342601770632	168
1	5227	161792.680972973718	167
1	5240	162498.039396233578	168
1	5245	162834.739270574143	167
1	5259	163253.393466715603	166
1	5265	163276.432351185387	167
1	5267	163482.629717915049	166
1	5276	163521.075850450244	167
1	5279	163562.978098003528	168
1	5289	164132.034760118364	167
1	5295	164138.658813236194	168
1	5297	164196.694178181431	167
1	5303	164244.00027451188	168
1	5330	164989.602530730085	169
1	5332	165079.080794640719	168
1	5338	165257.066726571855	169
1	5341	165398.048041124574	170
1	5350	165690.42029541052	169
1	5356	165835.240493950076	170
1	5358	165877.31061311522	169
1	5364	165992.669136424849	170
1	5367	166055.574429153318	171
1	5384	166491.910750501324	172
1	5393	166851.602359594772	173
1	5395	166890.987862433037	172
1	5403	167437.681380678802	171
1	5413	167597.746692223436	172
1	5416	167600.780939584627	173
1	5418	167728.130113427257	172
1	5441	168469.053943010935	173
1	5444	168550.788698505029	174
1	5446	168572.237477768874	173
1	5452	168619.320617373905	174
1	5457	168701.387786735683	173
1	5480	169378.959438961222	174
1	5488	169749.45180065996	173
1	5493	169779.085700857356	172
1	5499	169854.913274952803	173
1	5512	170253.24213546205	174
1	5519	170430.358435530175	175
1	5525	170593.477978109826	176
1	5528	170624.335601901088	177
1	5530	170652.156982478589	176
1	5536	170669.677719420811	177
1	5542	170854.671986361151	178
1	5554	171354.649570100671	177
1	5560	171412.193530042328	178
1	5562	171480.422722325564	177
1	5568	171540.279445302312	178
1	5584	172139.468545352752	179
1	5586	172160.831542937747	178
1	5599	172257.859883168887	179
1	5605	172457.456682333822	180
1	5608	172529.219764919307	181
1	5613	172771.184158158392	180
1	5623	172778.209047197632	181
1	5629	173185.49462840497	182
1	5632	173264.54487773877	183
1	5638	173309.451600438143	184
1	5644	173491.454726448945	183
1	5653	174082.029640654762	184
1	5660	174178.264737261737	185
1	5665	174366.538768607095	184
1	5671	174386.275043541697	185
1	5674	174419.26497846622	186
1	5686	174932.002558120477	187
1	5688	174966.827416774548	186
1	5711	175388.825063838085	187
1	5713	175427.16179822655	186
1	5719	175563.624212658435	187
1	5722	175629.619782020912	188
1	5725	175807.573961358953	189
1	5735	176201.422541509959	190
1	5738	176426.814634168295	191
1	5741	176452.46235573654	192
1	5746	176520.921590943552	191
1	5751	176579.634475494638	190
1	5771	177345.463560869269	191
1	5773	177807.565858150564	190
1	5779	178011.711966039285	191
1	5786	178078.598607787697	192
1	5788	178096.965941703782	191
1	5806	179351.361664320074	190
1	5812	179492.23709168403	191
1	5817	179775.186771611587	190
1	5823	179783.973848964622	191
1	5836	180157.445226580578	192
1	5849	180671.582586172514	193
1	5855	180730.473707626481	194
1	5858	180771.025507004631	195
1	5860	180811.794925518997	194
1	5866	181154.985301131282	195
1	5871	181229.772792347611	194
1	5876	181420.239665974595	193
1	5882	181424.587950461152	194
1	5899	182091.14928575677	195
1	5905	182256.284633642726	194
1	5911	182474.695697948	195
1	5913	182578.972482924254	194
1	5922	182657.648022861768	195
1	5928	182834.738309341573	196
1	5930	182873.679175936349	195
1	5944	183626.438914907442	196
1	5953	184165.140795634033	195
1	5959	184198.80880871773	196
1	5961	184360.00123153507	195
1	5970	184641.640442718664	196
1	5976	184832.118298719542	195
1	5982	184887.667778508892	196
1	5988	185179.571907148429	195
1	6013	186137.653212054538	194
1	6018	186188.947151220136	193
1	6040	186985.517443465906	192
1	6046	187002.571193540506	193
1	6059	187286.934697186654	194
1	6065	187328.572466292819	195
1	6068	187343.058942640261	196
1	6073	187460.370712914237	195
1	6079	187519.335895512465	196
1	6082	187537.062833117522	197
1	6085	187551.5928657067	198
1	6088	187554.168301856109	199
1	6091	187631.319839953792	200
1	6096	188077.053800179529	199
1	6101	188097.569951648557	198
1	6114	188530.59572535755	199
1	6124	188689.359094295762	200
1	6127	188711.899036049893	201
1	6136	189111.209741840803	200
1	6142	189164.003285347304	201
1	6145	189203.726161717741	202
1	6148	189331.428900008494	203
1	6157	189527.03537973659	202
1	6173	190059.349149590499	203
1	6175	190108.58597661435	202
1	6181	190531.8742305755	203
1	6193	190925.142063136118	202
1	6201	191134.455222702318	201
1	6207	191139.590009899862	202
1	6220	191754.610194369125	201
1	6225	191829.758120831766	200
1	6231	191980.579204676115	201
1	6237	192041.33964467276	202
1	6247	192422.77957828451	203
1	6250	192437.020826152646	204
1	6253	192530.016606559797	205
1	6262	192844.478799869212	204
1	6270	192938.883135664009	203
1	6276	193153.355366478861	204
1	6282	193359.691610104285	205
1	6296	193710.882956645922	206
1	6298	193971.960109473112	205
1	6316	194236.163764158927	204
1	6325	194460.480750690677	205
1	6334	194619.551794412982	206
1	6337	194732.3001495873	207
1	6343	194826.808985859486	208
1	6346	195029.405387505718	209
1	6351	195097.762261015269	208
1	6360	195132.724709409021	207
1	6366	195356.252826630069	208
1	6369	195381.8258398896	209
1	6379	195453.597892510917	210
1	6386	195506.738702168043	211
1	6397	195976.710522930044	210
1	6403	196258.860705375882	211
1	6406	196296.843303168857	212
1	6416	196494.749302310846	213
1	6419	196615.584480604393	214
1	6421	196654.109583777108	213
1	6436	197171.724525916503	214
1	6438	197302.672781460825	213
1	6443	197380.611186903634	212
1	6449	197408.169369979969	213
1	6456	197535.809008094048	214
1	6463	197665.741090417187	215
1	6469	197947.17489775354	214
1	6485	198472.383165385026	215
1	6487	198522.481921828085	214
1	6493	198586.903394772678	215
1	6499	198960.626197764138	216
1	6508	199214.710133374575	215
1	6516	199644.99929260529	214
1	6522	199774.804411013405	215
1	6532	200015.441916316912	216
1	6544	200472.865311243478	215
1	6550	200540.336229716226	216
1	6553	200662.336348227224	217
1	6558	200717.337933090249	216
1	6573	201107.631912468768	217
1	6580	201289.876605461892	218
1	6583	201345.615384963639	219
1	6585	201346.77655207991	218
1	6595	201552.16352340705	219
1	6598	201621.288832099915	220
1	6603	201672.872135230247	219
1	6609	201690.92229448759	220
1	6615	201972.282566066849	221
1	6618	202042.587449543721	222
1	6634	202937.318514120498	221
1	6639	203023.075087816362	220
1	6661	203737.12060445567	221
1	6664	203757.449118663426	222
1	6671	203788.88387352111	223
1	6674	204072.445530008078	224
1	6679	204151.921757627943	223
1	6685	204176.462246367897	224
1	6687	204256.448827228417	223
1	6710	204886.579696683686	224
1	6716	205169.238562567508	225
1	6725	205237.429467886038	226
1	6731	205415.590897431187	227
1	6733	205502.595705968236	226
1	6738	205512.341225157225	225
1	6747	205577.966668179296	226
1	6750	205763.310489022688	227
1	6757	206000.107447725297	228
1	6760	206188.591672645572	229
1	6776	206348.581269504332	230
1	6778	206504.668802191237	229
1	6784	206675.175181157355	230