version 2
run Iteration-4-20200521-09:32:43-58104
attr configname Iteration
attr datetime 20200521-09:32:43
attr experiment Iteration
attr inifile omnetpp.ini
attr iterationvars "$i=2, $j=2, $0=5-(2+2)"
attr iterationvarsf i=2,j=2,5-(2+2)-
attr measurement "$i=2, $j=2, $0=5-(2+2)"
attr network Network
attr processid 58104
attr repetition 0
attr replication #0
attr resultdir results
attr runnumber 4
attr seedset 4
itervar i 2
itervar j 2
param **.resourcePool.amount 2
param **.resourcePool1.amount 2
param **.resourcePool2.amount 5-(2+2)
param **.source.interArrivalTime exponential(6min)
param **.delay.delay uniform(4min,28min)
param **.delay1.delay uniform(10min,28min)
param **.delay2.delay uniform(4min,16min)
param **.allocate.resourceModuleName "\"Network.resourcePool\""
param **.allocate1.resourceModuleName "\"Network.resourcePool1\""
param **.allocate2.resourceModuleName "\"Network.resourcePool2\""
param **.deallocate.resourceModuleName "\"Network.resourcePool\""
param **.deallocate1.resourceModuleName "\"Network.resourcePool1\""
param **.deallocate2.resourceModuleName "\"Network.resourcePool2\""
param **.router.randomGateIndex "uniform(0, 1) > 0.2 ? 0 : 1"

vector 0 Network.allocate queueLength:vector ETV
attr interpolationmode sample-hold
attr title "queue length, vector"
vector 1 Network.allocate1 queueLength:vector ETV
attr interpolationmode sample-hold
attr title "queue length, vector"
vector 2 Network.allocate2 queueLength:vector ETV
attr interpolationmode sample-hold
attr title "queue length, vector"
vector 3 Network.sinkStat lifeTime:vector ETV
attr interpolationmode none
attr title "lifetime of arrived jobs, vector"
attr unit s
vector 4 Network.sink lifeTime:vector ETV
attr interpolationmode none
attr title "lifetime of arrived jobs, vector"
attr unit s
0	0	0	0
0	8	2127.799293012195	1
0	10	2256.389279577964	0
0	15	2824.512012841627	1
0	17	3255.227076306062	2
0	23	3525.724311646157	1
0	28	3582.899016316758	2
0	30	3674.430794298655	3
0	32	3676.680702868346	4
0	34	3700.21515544169	3
0	43	3969.432720568114	2
0	47	4108.220173515077	3
0	49	4304.509755295146	2
0	53	4551.938931119073	1
0	57	4652.297813202246	2
0	59	4958.105341101981	3
0	61	5076.605434414375	2
0	65	5120.899583872491	1
0	83	5673.686332649286	2
0	85	5676.935949316829	3
0	87	5837.160166051615	2
0	91	6018.253689601778	3
0	93	6129.814787984536	4
0	95	6146.074115995456	5
0	110	6517.804263656089	6
0	112	6633.822812211145	5
0	116	6776.996553529137	4
0	125	6931.106533553828	3
0	133	7588.978785707322	4
0	144	7798.581403798305	5
0	146	7813.849382359911	4
0	154	7868.211293087398	5
0	161	8149.277170848185	4
0	165	8295.72932701223	3
0	169	8344.106624345941	4
0	180	9079.435825486269	5
0	182	9188.306873011964	6
0	184	9229.529022573527	7
0	186	9242.637765119651	8
0	188	9295.91803379022	7
0	192	9304.644391778709	8
0	198	9588.289598619759	9
0	200	9721.49771991008	8
0	209	9855.836811128238	9
0	211	9865.336278859903	8
0	215	10040.632421215293	9
0	225	10221.735375624234	8
0	229	10418.367986836201	9
0	231	10452.431870211293	8
0	240	10770.42749021304	9
0	242	10841.419630384572	10
0	244	11013.59869990163	9
0	248	11151.154966648409	10
0	258	11307.164990660514	11
0	265	11372.771504324014	10
0	269	11724.941036728881	11
0	271	11732.535000767643	10
0	275	11794.427805912127	9
0	284	12016.216618930886	10
0	295	12336.724837895567	9
0	313	12934.328229908278	8
0	317	12970.511602708248	9
0	332	13744.427946981127	8
0	341	13872.570148968874	9
0	343	14161.575242761901	8
0	352	14718.708908332834	9
0	363	14863.512463500169	10
0	365	14914.752492119005	9
0	373	15246.259736146862	8
0	382	15535.703212024097	9
0	384	15567.549337421479	10
0	386	15597.558593238449	11
0	392	15924.971570271283	12
0	394	16026.361484755111	13
0	396	16062.375607293638	14
0	403	16210.907740813127	13
0	411	16492.792413521642	12
0	415	16537.210253121707	13
0	431	16870.296447046915	14
0	433	16877.34022836023	13
0	437	16920.094444578622	14
0	439	17263.310205075415	15
0	450	17613.011567589274	14
0	454	17884.142489392689	13
0	458	17969.638278286988	12
0	462	18194.031650644174	11
0	470	18344.336474529008	12
0	481	18592.169742469123	11
0	485	18759.087626742019	12
0	487	18808.781688797636	13
0	489	18959.409416344101	12
0	502	19476.949879390183	13
0	504	19655.333323922387	12
0	508	19898.162697814043	13
0	519	20276.552661106444	14
0	525	20373.531630258562	15
0	527	20396.244439434344	14
0	531	20609.95731004859	15
0	533	20630.084153522185	14
0	546	21161.201005306179	13
0	559	21554.204537703622	14
0	561	21673.398090887899	13
0	565	21733.796313906061	14
0	571	22081.114231158242	15
0	573	22116.800035942725	14
0	582	22287.776054677677	15
0	588	22479.235479970602	16
0	595	22674.738200796161	17
0	597	22752.040248316511	18
0	599	22891.192939352623	17
0	612	23135.407236885658	16
0	620	23188.945904698307	15
0	633	24152.759129505689	14
0	637	24153.526696248253	15
0	639	24307.199739358629	16
0	641	24308.614036802945	17
0	643	24330.460536183011	18
0	650	24553.843813568251	19
0	656	24601.509930000419	20
0	658	24724.8809247803	19
0	667	25095.72550265872	18
0	671	25114.566802882254	19
0	686	25924.148069758053	18
0	690	26012.802850212805	19
0	692	26049.506323147943	18
0	696	26091.027824481289	19
0	703	26387.784303222223	20
0	709	26890.934441202052	21
0	711	26959.811457578471	20
0	724	27252.892099392047	19
0	728	27521.471701663072	18
0	740	27784.47033907109	17
0	754	28321.727965689854	18
0	756	28446.607605997851	17
0	760	28597.311002179254	18
0	775	28992.694515105418	19
0	777	29044.797950306872	20
0	779	29071.153093379075	19
0	788	29977.84387726002	18
0	792	29990.787103984589	17
0	804	30120.885819478552	18
0	806	30226.950351033738	17
0	815	30480.466921401702	18
0	817	30668.966445069257	19
0	828	30858.691887470207	20
0	830	30938.961302105422	19
0	834	31119.763435385322	20
0	836	31361.948109093898	21
0	847	31814.637472141912	20
0	851	31820.797520328923	21
0	853	31874.751420918024	22
0	855	32064.449972471149	23
0	861	32315.226838548114	22
0	865	32512.125679951246	21
0	874	32535.216575213688	22
0	876	32672.089184106236	23
0	878	32724.195515021028	24
0	880	33228.856587833654	25
0	886	33369.322717894246	24
0	899	33713.86504739299	25
0	910	34178.873096432622	24
0	914	34350.539035853476	25
0	925	34729.221575561145	26
0	927	34809.967894662549	25
0	940	35409.911726217802	24
0	949	35577.491933364799	23
0	962	36122.695610549386	22
0	966	36425.698895935347	21
0	979	36872.581952694104	22
0	981	36905.315663354439	23
0	987	37222.026968736287	22
0	991	37373.659887524999	23
0	1002	37666.833372865425	24
0	1008	38060.589643191924	23
0	1017	38442.947385823786	24
0	1019	38448.930940292841	25
0	1021	38455.317792099055	24
0	1025	38508.237250192694	25
0	1027	38598.413737323538	26
0	1042	39146.565733764406	25
0	1046	39217.651725259056	24
0	1055	39605.676871534815	23
0	1068	39836.140982832845	22
0	1077	40260.508927546757	23
0	1079	40386.166680451861	22
0	1096	40821.404781099866	23
0	1098	40850.546586949464	22
0	1102	41000.337233053606	23
0	1104	41129.959770955214	24
0	1110	41267.146967906883	23
0	1119	41607.396167427843	24
0	1125	42102.521541447374	25
0	1127	42134.068401748173	26
0	1129	42207.805015975222	27
0	1140	42434.612589765426	26
0	1144	42551.767982710247	27
0	1146	42694.889098924032	26
0	1150	42697.801872868459	27
0	1162	43223.013931240972	26
0	1170	43479.986466784209	27
0	1172	43496.15633866503	28
0	1174	43515.545800147389	29
0	1176	43636.439158317687	30
0	1196	44299.198570695153	29
0	1200	44340.965478723085	30
0	1202	44388.308421411674	31
0	1204	44492.593950720926	32
0	1215	44712.386213034641	33
0	1217	44862.266713779505	32
0	1221	45010.52841613187	33
0	1223	45092.106522945857	34
0	1225	45101.369284918938	35
0	1236	45359.195920641992	36
0	1243	45526.578048954961	37
0	1245	45599.984385316843	38
0	1247	45621.19104480585	39
0	1249	45627.333547022572	38
0	1253	45662.331583209561	39
0	1255	45696.517844761166	40
0	1262	46026.200294985567	41
0	1264	46108.477338316133	42
0	1270	46121.995332453485	41
0	1283	46657.612923417619	40
0	1291	47041.863236956453	41
0	1293	47097.70014936858	40
0	1302	47482.492481757041	39
0	1306	47521.996293433079	40
0	1312	48002.964543092485	41
0	1319	48302.916530777148	40
0	1327	48636.88466467896	41
0	1329	48801.900006343058	40
0	1333	48843.710909251245	41
0	1344	49074.499804403719	40
0	1352	49567.614269710815	41
0	1354	49614.777152063947	42
0	1356	49716.912988487717	41
0	1365	49834.296330284706	40
0	1369	49885.875467275251	41
0	1371	49981.738609189784	42
0	1373	50060.285695315957	43
0	1375	50164.392674561969	42
0	1379	50234.46332349239	43
0	1381	50250.247834108409	44
0	1388	50290.784478698012	43
0	1392	50405.180784192528	44
0	1402	51057.906778227917	43
0	1406	51112.271253269252	42
0	1415	51138.074016128976	43
0	1417	51169.152457418564	44
0	1424	51590.10420921081	43
0	1428	51662.259707220428	44
0	1443	52053.595638655571	45
0	1445	52213.939758722118	44
0	1458	52584.511130560568	43
0	1466	52802.374197596446	44
0	1468	52927.93061765685	45
0	1479	53102.439918472804	46
0	1481	53250.267812412319	45
0	1485	53250.49048172727	46
0	1487	53575.126619944674	47
0	1489	53594.940170381597	46
0	1498	53733.335545572204	47
0	1500	53785.075718869542	48
0	1502	53889.293231699995	47
0	1510	54124.15301897625	48
0	1521	54312.12673260969	49
0	1523	54639.523234728811	48
0	1532	54783.773950761491	49
0	1534	54910.23820525789	48
0	1551	55391.561684969379	49
0	1553	55409.468341205649	48
0	1562	55740.431628533554	49
0	1564	55791.552348610101	48
0	1573	56129.954211775301	47
0	1581	56283.930971395604	46
0	1585	56375.530809972523	45
0	1589	56566.580783047561	46
0	1595	56655.066371444958	47
0	1597	56765.863616056822	48
0	1604	56968.434343066154	47
0	1608	57075.911193842371	48
0	1623	57829.677801062344	49
0	1625	57868.232357163362	48
0	1634	58315.511716679329	49
0	1636	58327.614298336533	50
0	1642	58587.608386192558	49
0	1646	58694.273647433591	50
0	1648	58722.062832113735	49
0	1665	59356.383007551412	50
0	1667	59444.151558157144	49
0	1671	59444.98347744236	50
0	1673	59690.425006632141	49
0	1682	60107.85695779734	48
0	1691	60656.285721884391	49
0	1697	60794.82003289203	50
0	1699	60848.031158845959	49
0	1712	61266.170684533653	50
0	1714	61284.380486798018	51
0	1721	61589.740613019549	52
0	1723	61634.19250777745	51
0	1727	61702.151577096812	50
0	1740	62272.860166482095	51
0	1747	62395.446755837736	50
0	1759	62651.08651272618	49
0	1763	62660.21188371338	50
0	1770	63106.045619163749	49
0	1774	63239.776243489615	48
0	1778	63506.707721639511	47
0	1782	63724.956470728402	48
0	1797	63873.034742769233	47
0	1801	63909.01675150494	48
0	1808	64256.254697654483	47
0	1812	64481.61097911816	48
0	1814	64525.84714183984	49
0	1821	64612.403197502515	50
0	1823	64872.833387381728	51
0	1825	64889.840140749148	50
0	1837	65168.864720199636	49
0	1841	65241.898368995723	48
0	1850	65542.205890878763	49
0	1852	65708.67427944769	50
0	1858	66094.500493990389	51
0	1869	66198.134161774581	52
0	1871	66225.099591611629	53
0	1873	66286.623304291505	54
0	1875	66560.142449074238	55
0	1877	66582.359097551641	54
0	1881	66607.166111725179	55
0	1883	66645.286923030202	56
0	1885	66720.353785787157	55
0	1889	66776.175111452025	56
0	1891	66799.807551288097	57
0	1906	67186.148347533576	58
0	1908	67429.309003087895	59
0	1910	67632.782712205894	60
0	1917	68033.584645610682	59
0	1925	68174.272728625772	58
0	1933	68493.729885928928	59
0	1940	68986.470013023714	60
0	1942	69150.827548306522	59
0	1951	69344.900710281364	58
0	1959	69658.88314408423	59
0	1970	69955.963051357761	60
0	1972	69997.730040509633	59
0	1976	70160.33269768305	60
0	1978	70189.478044759335	61
0	1985	70339.263384678218	62
0	1987	70460.190159062427	63
0	1989	70481.54019837019	64
0	2000	70820.734886963007	63
0	2004	70911.449409614928	64
0	2006	71036.988025751344	63
0	2024	71483.56427286628	64
0	2026	71506.463866542332	65
0	2028	71642.190062847368	64
0	2041	71852.947182532487	63
0	2055	72718.816381896046	64
0	2057	72742.110319722531	63
0	2065	72816.761201355986	62
0	2069	72842.896494678888	63
0	2075	73220.111689233182	64
0	2090	73723.61933147711	65
0	2092	73854.957995329139	64
0	2101	74076.853431058139	65
0	2107	74324.972889341666	66
0	2109	74471.578293625645	65
0	2113	74630.96960231851	66
0	2119	74882.346556220828	67
0	2126	75269.278134588532	66
0	2130	75308.314233038661	65
0	2143	75455.396170909966	66
0	2150	75838.257506218326	67
0	2156	76012.94609526926	66
0	2160	76158.565985110037	65
0	2168	76298.167048654119	66
0	2175	76541.895826963908	67
0	2177	76960.141007814643	66
0	2194	77399.443281438582	65
0	2198	77465.448006373	66
0	2200	77637.91263464978	67
0	2207	77847.586780931101	68
0	2209	78032.408504967027	67
0	2217	78566.613787103531	66
0	2221	78588.729361290387	67
0	2232	78709.852634963029	66
0	2236	78730.978427846802	67
0	2238	79128.396538915251	68
0	2240	79159.08524757932	69
0	2246	79365.803727578753	68
0	2259	79848.86508541051	69
0	2261	80075.307406883774	68
0	2265	80096.285888075149	69
0	2276	80237.099739089331	70
0	2278	80649.484325001118	71
0	2289	80803.813737254971	70
0	2293	81150.598841149447	69
0	2306	81820.209321033199	70
0	2317	82156.894265748352	71
0	2319	82214.30384276619	72
0	2321	82364.13637324328	73
0	2323	82431.084058132404	72
0	2327	82611.064381476579	71
0	2340	82920.944183328577	72
0	2342	82966.614551762409	73
0	2344	83138.251144323879	72
0	2356	83407.139820862942	71
0	2365	83592.41065374398	70
0	2369	83822.298023548358	69
0	2378	84140.805755491689	70
0	2380	84238.063240972324	71
0	2395	84782.606532823382	70
0	2399	84807.642198760443	69
0	2403	84884.794102734954	70
0	2405	84972.150987292645	71
0	2407	85046.986557071348	72
0	2409	85112.279211793183	71
0	2413	85141.873335165959	72
0	2433	85831.499121364294	71
0	2437	85935.367717022855	72
0	2439	86056.804613430434	71
0	2448	86315.771926513028	72
0	2450	86437.934834961724	73
0	2452	86619.717117372654	74
0	2454	86628.387909453743	73
0	2458	86704.341951448558	72
0	2471	87090.884293455718	71
0	2479	87324.238394283694	72
0	2481	87329.920418166028	73
0	2483	87396.684123497718	74
0	2485	87503.545714973619	75
0	2487	87575.900185904843	76
0	2498	88182.099509757393	75
0	2502	88287.119853576006	76
0	2509	88497.54158946508	75
0	2513	88521.393248664437	76
0	2524	88688.882952738934	75
0	2528	88877.006197784184	74
0	2536	89263.501947444313	73
0	2549	89715.621428208859	74
0	2551	90072.856258485847	73
0	2560	90337.604724447285	74
0	2566	90404.403227146803	73
0	2574	90697.195566554003	72
0	2578	90734.260052469371	73
0	2580	90783.974139126341	74
0	2582	90823.877913822622	75
0	2584	90985.330245118969	74
0	2588	91069.735917465931	75
0	2599	91554.692487340801	74
0	2603	91589.536238990279	75
0	2605	91743.074737444496	76
0	2611	91873.717456219648	77
0	2613	91887.382916797041	76
0	2622	92074.626915786796	75
0	2630	92383.565282847946	76
0	2632	92453.26168287395	77
0	2643	93073.477388497531	76
0	2656	93416.577406596773	75
0	2665	93675.428180236458	74
0	2669	93947.406861576314	75
0	2675	94400.790402469115	76
0	2682	94433.687496557857	77
0	2684	94505.380188819402	76
0	2697	94758.81224176669	75
0	2701	94827.03899014787	76
0	2703	94955.58665190862	77
0	2705	95055.313419117842	78
0	2707	95199.357556929213	79
0	2709	95222.161608412634	80
0	2715	95465.040251101431	81
0	2717	95547.120714102029	80
0	2726	95860.022525895768	79
0	2743	96657.598989602559	78
0	2752	96938.525141727268	77
0	2756	96952.92952862943	78
0	2758	97127.574894758668	79
0	2778	97931.730762616554	80
0	2780	97957.48282425153	81
0	2782	98208.086351041132	80
0	2791	98345.043604586362	79
0	2795	98407.385114543213	80
0	2801	98497.87150206971	81
0	2808	98914.552400287689	82
0	2810	98991.934732123099	83
0	2812	99114.280684844405	84
0	2823	99765.245585610072	85
0	2825	99847.150094170505	84
0	2829	99964.734664958059	83
0	2837	100166.504749491818	84
0	2839	100173.417492509849	85
0	2850	100651.598524559671	84
0	2863	101130.336229668871	85
0	2865	101364.494132425725	84
0	2873	101767.241090122992	83
0	2886	102096.052340144227	84
0	2888	102406.361384596984	85
0	2895	102547.196690276155	86
0	2897	102692.075462474085	87
0	2904	102886.75341355437	86
0	2908	103133.810471740002	85
0	2920	103364.133100337833	86
0	2927	103751.340765885552	87
0	2929	103766.105053832136	88
0	2931	103841.76773473432	89
0	2933	104110.850320523832	90
0	2940	104222.860612448394	89
0	2949	104499.422214549417	88
0	2953	104567.960746501704	89
0	2955	104789.450461016173	90
0	2961	104847.622378829956	89
0	2974	105594.020718125909	90
0	2976	105742.94175601387	89
0	2985	105868.796196390326	88
0	2989	105960.681428478386	89
0	2991	106166.911844421561	88
0	3008	106795.576167587574	87
0	3012	106814.045362805768	88
0	3014	106837.375939184587	89
0	3016	107193.134731862783	88
0	3020	107370.101666592104	89
0	3040	107906.042142678105	90
0	3042	107975.115624021828	89
0	3046	108033.254744593437	88
0	3050	108136.11905580742	89
0	3052	108252.648170446836	90
0	3054	108299.996838864322	89
0	3072	109043.323189716875	88
0	3080	109132.269920517142	87
0	3084	109202.421234953423	88
0	3095	109929.422570306897	87
0	3104	110178.964492378515	88
0	3106	110268.922680381775	87
0	3110	110422.313358333345	86
0	3114	110422.33379098118	87
0	3129	111309.27317132346	88
0	3136	111651.27547688448	87
0	3140	111724.62644810611	86
0	3144	111948.6011164602	85
0	3148	111955.341810261677	86
0	3150	111960.379455431943	87
0	3152	111976.421102172442	88
0	3167	112442.178186025854	87
0	3175	112876.204149004161	86
0	3188	113574.28311681684	87
0	3190	113626.981433298573	88
0	3197	113916.167754706084	87
0	3201	113974.980585878375	88
0	3203	114053.887725020694	89
0	3209	114121.262395378586	88
0	3217	114370.293246975449	89
0	3224	114699.808204297399	90
0	3231	115042.585720532216	91
0	3233	115247.997883414436	92
0	3235	115401.38563889676	91
0	3243	115477.715292859911	90
0	3247	115562.464663038905	91
0	3253	115724.564804766963	92
0	3255	115752.56440385842	91
0	3259	115829.90493512535	90
0	3263	115874.585649098837	91
0	3270	115915.73419213607	92
0	3272	116077.3590579223	91
0	3276	116545.172100763856	90
0	3289	116852.946555789648	89
0	3302	117072.165613535166	90
0	3304	117215.643163466289	91
0	3315	117436.738856535493	90
0	3319	117571.820513696996	91
0	3321	117668.084892850753	90
0	3330	118177.816940484084	91
0	3340	118610.47360703015	90
0	3344	118620.757150718073	91
0	3346	118814.126387413679	90
0	3355	119131.722562939379	91
0	3357	119144.685567130779	92
0	3359	119189.671111785442	93
0	3361	119197.375407771995	94
0	3363	119215.51987833166	93
0	3367	119254.323458591366	94
0	3378	119767.827145640191	93
0	3386	119968.535147893471	94
0	3388	120271.367685411214	93
0	3397	120400.083890233634	94
0	3403	120818.516386520502	93
0	3412	121151.572505195078	92
0	3429	121456.008633998362	93
0	3431	121529.877515431878	92
0	3435	121730.963324931964	93
0	3441	121900.490171999489	94
0	3443	121916.637263249695	93
0	3447	122238.790088052261	94
0	3449	122285.326144878528	95
0	3456	122396.605140555739	94
0	3464	122624.232457786355	95
0	3470	122853.06544791573	94
0	3479	123028.656847889024	95
0	3481	123062.947179626763	94
0	3494	123318.530097041664	93
0	3498	123362.207830164671	92
0	3502	123695.183526730546	93
0	3504	123796.506005335984	92
0	3521	124295.942846562803	91
0	3530	125170.026845928666	90
0	3539	125346.596142763047	91
0	3545	125512.381665509284	90
0	3553	125723.652645644185	89
0	3562	125838.96793291903	90
0	3564	125870.479259032846	89
0	3568	125962.508832417061	90
0	3570	125995.249185186264	89
0	3574	126005.016463611081	90
0	3576	126247.014660138006	91
0	3578	126279.507079859784	92
0	3580	126297.461256210882	93
0	3582	126337.111885209021	92
0	3586	126547.510190680006	93
0	3597	126575.91432384038	92
0	3605	127075.013678211809	91
0	3618	127407.797192108271	90
0	3622	127664.715461153154	91
0	3624	127759.298041422305	90
0	3628	127830.68171537304	89
0	3636	127894.592474801481	90
0	3638	127915.794093772462	91
0	3645	128144.994347859949	92
0	3647	128282.500122968492	91
0	3656	128310.46167867748	92
0	3666	128591.463932319041	93
0	3668	128708.376672820834	94
0	3675	129107.894807372332	93
0	3687	129295.906069934364	94
0	3689	129352.769834255032	95
0	3691	129510.097161560515	96
0	3698	129765.216022391257	95
0	3702	129786.038199987352	94
0	3706	130026.282132058213	95
0	3708	130150.566091321182	96
0	3710	130210.838098574091	97
0	3712	130271.287111598386	98
0	3723	130562.651133600712	97
0	3731	131083.146013591759	98
0	3738	131435.839966159699	97
0	3742	131459.125683685252	98
0	3744	131551.752993844513	99
0	3746	131575.182665873409	98
0	3759	131709.029680524406	97
0	3772	131915.142141329026	98
0	3774	131971.07772481566	99
0	3776	132017.88142522133	100
0	3778	132102.84685448203	101
0	3780	132139.63795967066	100
0	3784	132381.631921335732	101
0	3795	132584.141990605832	100
0	3799	132826.619222018089	101
0	3805	133039.442530122039	100
0	3809	133095.677681955221	101
0	3811	133122.650960218323	102
0	3818	133443.838654768308	103
0	3820	133472.783725591575	104
0	3822	133491.157473128379	103
0	3826	133495.130511874777	104
0	3837	133951.902376931545	103
0	3845	134206.271939760432	104
0	3852	134608.070094273495	105
0	3854	134717.064378921033	104
0	3858	134767.422477251147	105
0	3860	135001.25356637368	106
0	3866	135101.482031938073	105
0	3874	135128.126775556533	106
0	3881	135412.55341613677	107
0	3883	135430.601672440456	108
0	3885	135431.455185037491	107
0	3889	135522.472194960265	108
0	3891	135576.162291426188	109
0	3898	136088.606683424235	110
0	3900	136139.312472734264	111
0	3902	136303.2181723305	110
0	3914	136476.068112278806	111
0	3916	136548.453177060529	112
0	3923	136678.021036308644	111
0	3932	137492.515176643071	110
0	3936	137591.372402443495	111
0	3938	137668.873885262848	110
0	3942	137733.990314894778	111
0	3944	137757.232086766896	110
0	3961	138104.780312140823	111
0	3963	138388.78048728043	110
0	3967	138575.436256660587	111
0	3978	138898.237620408821	112
0	3984	139107.725056220231	111
0	3988	139227.780657106224	112
0	3999	139546.370653469501	111
0	4003	139577.287078736929	112
0	4005	139665.201914224865	111
0	4009	139693.213087232631	112
0	4011	139968.49438070809	113
0	4026	140342.435549894605	114
0	4028	140399.412211657665	115
0	4030	140640.101084806086	116
0	4032	140658.076137698939	117
0	4034	140701.082038421275	116
0	4038	140706.767163647952	117
0	4045	141023.103409257172	116
0	4049	141162.251022819108	117
0	4051	141299.175373913074	118
0	4053	141371.798013219772	119
0	4055	141427.34130343662	120
0	4070	141823.935134176256	119
0	4079	141978.002670435853	120
0	4081	142011.128139756368	121
0	4083	142214.519661605716	122
0	4090	142230.419652396842	123
0	4092	142283.508461144009	124
0	4094	142313.372883197306	123
0	4102	142587.569173608361	122
0	4106	142902.650580246093	121
0	4119	143360.937501926067	120
0	4132	143644.002171270314	121
0	4138	143952.871349740865	120
0	4142	143967.84121375197	119
0	4146	143994.117341507948	120
0	4162	144977.151994031308	119
0	4170	145073.19529137397	118
0	4179	145497.756147583081	119
0	4181	145786.572927593011	120
0	4183	145787.511167522905	119
0	4200	146374.835544850769	118
0	4204	146421.888229469365	119
0	4214	146917.437511112633	118
0	4223	147007.99111651002	119
0	4225	147069.989518296359	118
0	4239	147748.114874386242	119
0	4245	147904.185392249468	118
0	4249	148011.744920830315	119
0	4255	148289.200195412891	120
0	4257	148379.179151129363	119
0	4266	148563.47607393106	120
0	4268	148864.132216470149	121
0	4270	148938.273428667429	120
0	4283	149285.740290608349	119
0	4296	149721.7728470605	118
0	4300	149790.478205989933	119
0	4302	149836.179532331839	120
0	4304	149999.456364108415	121
0	4315	150145.129748234974	122
0	4321	150337.762731186365	123
0	4323	150902.405381675902	122
0	4327	150918.321732651828	121
0	4344	151288.288471911195	120
0	4362	152432.832878377674	119
0	4366	152506.968282287651	120
0	4377	152777.045534138022	119
0	4385	152933.726725827995	118
0	4394	153394.399249910501	119
0	4401	153562.388754514555	120
0	4403	153635.056797142002	121
0	4405	153636.155023002972	122
0	4415	154309.513865573421	123
0	4417	154326.202282559219	122
0	4421	154400.777383294342	121
0	4430	154705.343072214872	122
0	4432	154767.920584257785	121
0	4440	154898.591309097074	122
0	4442	154938.710862841843	121
0	4446	154942.640312130616	122
0	4448	155216.310534769612	123
0	4459	155456.149582432454	124
0	4465	155595.538814541045	123
0	4474	156347.913710322617	122
0	4483	156432.879514385107	121
0	4495	156956.431770135103	120
0	4504	157477.9895966874	121
0	4506	157574.275816850453	122
0	4508	157669.286393370865	121
0	4521	158078.691291723493	120
0	4529	158103.17948363083	121
0	4531	158454.465001713818	122
0	4542	158709.139835699252	123
0	4544	158752.39704694265	122
0	4548	158793.049748789164	123
0	4550	158861.670797475109	124
0	4557	159270.63658231443	125
0	4559	159276.184792656544	124
0	4567	159353.532080844942	125
0	4569	159362.387334700517	126
0	4571	159394.492881941959	127
0	4573	159477.430345149967	128
0	4575	159658.25215480705	129
0	4577	159696.054397216478	130
0	4588	160079.442341018561	129
0	4592	160406.533959504603	128
0	4596	160467.294160062649	129
0	4603	160550.03404720535	130
0	4609	160768.447207946423	129
0	4613	161120.216196772097	128
0	4617	161182.04671197092	129
0	4624	161249.135786114219	130
0	4626	161377.584131195333	131
0	4628	161464.702656451999	130
0	4636	161700.788276137429	131
0	4642	162163.86640798127	132
0	4649	162355.303322178214	133
0	4651	162391.214192424062	132
0	4668	163090.953999419152	131
0	4677	163576.786730874177	132
0	4679	163597.449055787269	131
0	4687	163781.617250669169	132
0	4693	164019.76254144725	133
0	4695	164167.142776098489	132
0	4708	164472.680703658997	131
0	4721	164606.375018096932	132
0	4723	165013.000334937219	131
0	4727	165154.773761701225	130
0	4740	165640.454801458959	129
0	4744	165642.997470417511	130
0	4746	165907.234782004417	131
0	4748	165986.551116478084	130
0	4752	166013.936287473237	131
0	4763	166369.434616215033	132
0	4765	166389.409428794323	131
0	4773	166666.071183938919	130
0	4777	166678.133896231112	131
0	4779	166723.446898549744	132
0	4781	166839.12042170659	133
0	4787	167027.298929209212	134
0	4789	167158.219784561638	133
0	4798	167186.272338043677	134
0	4800	167239.452363407496	135
0	4802	167414.443274621306	134
0	4806	167603.385077890102	133
0	4814	167755.321311210399	134
0	4825	168334.599886869966	135
0	4827	168363.309081464217	136
0	4829	168758.524355363486	135
0	4838	168850.350042533223	134
0	4846	168887.653659834365	135
0	4848	169065.812690280366	136
0	4854	169165.759785859348	137
0	4861	169483.981998514478	136
0	4865	169503.728056807456	135
0	4869	169547.186737799883	136
0	4871	169719.397592973161	137
0	4878	169834.73865750843	136
0	4890	170399.031193104026	135
0	4894	170657.857863854711	134
0	4898	170738.213689549971	135
0	4909	171287.194581616764	134
0	4913	171410.318321418172	135
0	4915	171625.432048138616	134
0	4932	172102.781374637423	133
0	4936	172198.094909988926	134
0	4938	172370.173885654625	135
0	4945	172542.012182872837	134
0	4949	172726.342304625212	135
0	4960	173364.205359768217	134
0	4968	173443.275046419738	133
0	4972	173476.361561574182	134
0	4974	173490.873433445626	135
0	4981	173788.829627428662	136
0	4991	174316.368804351108	137
0	4993	174377.13008297664	138
0	4995	174386.903559621403	139
0	5002	174760.64759336078	138
0	5006	174912.884375606686	139
0	5008	174965.062088918036	138
0	5020	175402.45481725633	139
0	5027	176104.110633272773	138
0	5035	176193.125275370119	137
0	5048	176528.627520740468	138
0	5050	176746.267277334271	137
0	5054	176916.607700180555	138
0	5056	177033.457389505599	139
0	5058	177037.599546600229	138
0	5066	177152.804066344669	139
0	5077	177628.464397661792	140
0	5088	177966.717038885725	141
0	5090	177968.514384169227	140
0	5094	178023.869717117785	139
0	5103	178399.004159491895	138
0	5107	178583.866728933017	139
0	5109	178846.354435857481	138
0	5117	178900.281531023716	139
0	5123	179155.991610471545	138
0	5132	179230.805936928934	137
0	5149	180059.114986095963	136
0	5153	180219.324832109789	137
0	5160	180607.360353592143	138
0	5162	180709.47323127473	137
0	5174	180943.422248676996	138
0	5181	181140.325387994109	139
0	5183	181233.493912812708	138
0	5187	181374.949860903684	139
0	5189	181491.076381127384	140
0	5191	181575.784978714226	139
0	5195	181654.569693309331	140
0	5197	181662.200609328916	141
0	5208	181954.164438050336	140
0	5216	182171.296021439602	141
0	5223	182498.543169971651	140
0	5227	182700.877566408197	141
0	5233	183083.952099305032	140
0	5242	183502.89776275689	139
0	5246	183560.833760139133	140
0	5248	183605.9590233829	139
0	5261	183974.278187474877	140
0	5268	184159.990921866244	139
0	5272	184338.430680964527	138
0	5289	184532.268659424132	137
0	5293	184746.86657173973	138
0	5295	184913.050599452111	139
0	5306	185319.51485145503	138
0	5310	185363.85708159498	139
0	5316	185642.503909718341	138
0	5320	185700.468074349869	139
0	5322	185716.744394479272	140
0	5334	186281.540214497009	141
0	5341	186746.135252487299	140
0	5349	186834.830991426635	141
0	5355	186907.794547107167	140
0	5364	187584.938845385972	141
0	5366	187779.726834214186	142
0	5368	187783.546695640456	143
0	5370	188127.474418039448	144
0	5381	188239.377281364438	143
0	5389	188417.862676157968	144
0	5391	188469.781984303243	143
0	5400	188644.274108119081	144
0	5407	188801.739794401915	145
0	5409	189066.629523575819	146
0	5425	189538.923439186163	145
0	5429	189658.282511615361	146
0	5435	189718.160492737231	145
0	5439	189894.445308178257	146
0	5441	190025.2728871884	147
0	5443	190143.12528721054	148
0	5445	190185.392359217346	149
0	5456	190448.494540416939	150
0	5462	190558.570661615965	149
0	5466	190611.727497257583	150
0	5468	190813.141173597522	149
0	5477	191047.78847000006	150
0	5479	191113.436970426521	151
0	5481	191140.859721191101	152
0	5487	191465.554474096842	151
0	5500	191850.908076213488	152
0	5502	192129.28877065713	151
0	5514	192204.008819232872	152
0	5516	192206.973072659609	151
0	5520	192412.874988271399	152
0	5532	192897.784219633885	151
0	5536	193108.402866978583	150
0	5545	193150.913677134104	151
0	5555	193588.24471060166	152
0	5562	193953.369823257315	153
0	5564	194104.781781535693	152
0	5577	194558.525491420277	151
0	5581	194599.422421304513	152
0	5587	194736.029031161604	151
0	5591	194879.991373520329	152
0	5593	194985.787395776019	153