version 2
run Iteration-6-20200521-08:30:19-53804
attr configname Iteration
attr datetime 20200521-08:30:19
attr experiment Iteration
attr inifile omnetpp.ini
attr iterationvars "$i=7, $0=10-7"
attr iterationvarsf i=7,10-7-
attr measurement "$i=7, $0=10-7"
attr network Network
attr processid 53804
attr repetition 0
attr replication #0
attr resultdir results
attr runnumber 6
attr seedset 6
itervar i 7
param **.resourcePool.amount 7
param **.resourcePool1.amount 10-7
param **.source.interArrivalTime uniform(5s,15s)
param **.delay.delay uniform(10s,70s)
param **.delay1.delay uniform(20s,40s)
param **.allocate.resourceModuleName "\"Network.resourcePool\""
param **.allocate1.resourceModuleName "\"Network.resourcePool1\""
param **.deallocate.resourceModuleName "\"Network.resourcePool\""
param **.deallocate1.resourceModuleName "\"Network.resourcePool1\""

vector 0 Network.allocate queueLength:vector ETV
attr interpolationmode sample-hold
attr title "queue length, vector"
vector 1 Network.allocate1 queueLength:vector ETV
attr interpolationmode sample-hold
attr title "queue length, vector"
vector 2 Network.sinkStat lifeTime:vector ETV
attr interpolationmode none
attr title "lifetime of arrived jobs, vector"
attr unit s
0	0	0	0
1	0	0	0
1	69	105.890481513926	1
1	74	118.763740269934	0
1	99	141.800569847693	1
1	105	152.000649448019	2
1	107	157.047648162116	1
1	115	160.460351093207	2
1	117	163.051173377317	1
1	124	176.647140437273	0
1	136	184.553478085436	1
1	141	186.008067193907	0
1	149	197.853423329071	1
1	152	203.46406051889	2
1	157	211.375273230953	1
1	161	211.578483455815	0
1	166	213.418232046533	1
1	172	214.640817951877	2
1	174	216.826804324519	1
1	182	221.610680180602	2
1	187	235.840945241509	1
1	192	236.776373167523	2
1	194	239.643609519117	1
1	201	253.338644139003	0
1	206	258.552689426579	1
1	211	260.953226380518	0
1	219	275.369728647639	1
1	221	275.395804685541	0
1	226	275.852506773081	1
1	228	285.318762345705	0
1	259	314.697083418723	1
1	264	321.750856216531	0
1	269	334.880891775247	1
1	274	337.374904083554	0
1	279	346.150329920929	1
1	281	347.006948953495	0
1	286	348.599453477654	1
1	291	350.76084169792	0
1	296	353.388136562426	1
1	299	356.345903992187	2
1	305	365.594354085623	3
1	311	368.802843310404	4
1	314	371.659945605787	5
1	316	372.018646148499	4
1	323	381.199521175586	3
1	327	384.354129491839	2
1	338	406.809313483535	3
1	340	407.313665768597	2
1	344	408.144973318558	1
1	351	411.851415149868	0
1	362	426.294654512311	1
1	365	427.96479047276	2
1	368	428.446231493725	3
1	371	430.598540066274	4
1	376	439.589846271556	3
1	380	439.76587517187	2
1	384	442.839674253482	1
1	392	460.348942016716	2
1	398	468.405409101396	3
1	400	469.013092517853	2
1	407	477.295127802063	1
1	412	481.626307456753	2
1	415	482.20398693811	3
1	417	482.37073460361	2
1	427	498.607178898528	1
1	431	506.81730525801	0
1	446	510.157277602701	1
1	454	532.647895384579	0
1	482	553.150653913616	1
1	487	560.798042798414	0
1	492	564.402364718261	1
1	495	565.271029521244	2
1	498	568.994727064854	3
1	504	571.83760923799	4
1	507	579.394857969599	5
1	509	581.333325076847	4
1	513	582.575122199485	3
1	520	584.067817744798	2
1	528	595.560608427038	3
1	531	600.810258784329	4
1	533	603.09731225483	3
1	537	607.607405080924	2
1	545	616.16788721876	3
1	550	619.657179294153	2
1	555	620.159739519002	3
1	557	624.421721873804	2
1	565	631.945742405949	3
1	567	637.244332821572	2
1	575	641.534084086304	3
1	580	650.747268642298	2
1	584	652.857375689781	1
1	592	665.528119849038	2
1	594	669.321663917506	1
1	601	673.355326601303	0
1	606	676.44819370005	1
1	609	680.310105890964	2
1	615	686.174850058739	3
1	617	687.066382342017	2
1	622	687.559366419443	3
1	624	694.08749709837	2
1	634	709.144302124621	1
1	639	710.666276905683	2
1	641	713.438404565676	1
1	651	731.348105301148	0
1	676	747.350407415066	1
1	679	750.153822710268	2
1	685	765.086225182745	3
1	690	767.284204959868	2
1	694	769.311083243226	1
1	702	774.430167546958	2
1	705	775.213666439519	3
1	708	780.531170910687	4
1	713	784.849232723933	3
1	723	802.949338364413	2
1	730	806.666310923172	1
1	735	811.412202913777	2
1	737	816.074735377912	1
1	748	830.983511488882	2
1	753	835.725070708429	1
1	758	838.684957413931	2
1	760	841.674920353105	1
1	768	850.314474331678	2
1	770	854.264645697546	1
1	774	855.997545449061	0
1	779	856.295542407312	1
1	785	860.156813769133	2
1	791	869.910501369738	3
1	797	871.706283001692	4
1	800	873.061659261581	5
1	805	881.520557240581	4
1	809	885.600581034084	3
1	814	889.056074237448	4
1	820	891.456931543068	5
1	822	893.697224138302	4
1	829	906.530056721528	3
1	833	907.548999232238	2
1	841	911.993962482081	3
1	844	913.592760991301	4
1	850	922.230659902558	5
1	853	923.865300945469	6
1	855	926.375106791963	5
1	859	927.781116114927	4
1	867	935.633389661084	5
1	873	942.815674687732	6
1	876	943.201050285712	7
1	878	944.700151714493	6
1	885	951.387468725441	5
1	889	951.974531458688	4
1	900	969.302982196674	5
1	905	976.303765634073	4
1	909	981.154570472423	3
1	916	988.99553547613	2
1	921	996.915161567736	3
1	924	999.123610195234	4
1	930	1000.301666611336	5
1	932	1005.973837128839	4
1	937	1007.334452373903	5
1	942	1015.777658051807	4
1	952	1028.456985466179	3
1	957	1030.508696911853	4
1	959	1034.548260718583	3
1	964	1036.680046808902	4
1	972	1055.351934167552	3
1	980	1059.878814136606	4
1	982	1060.781628079709	3
1	987	1063.451765365895	4
1	990	1064.536406523545	5
1	995	1073.921582293696	4
1	999	1080.089364675801	3
1	1006	1085.772811472413	2
1	1011	1088.74689100077	3
1	1017	1094.688808957578	4
1	1020	1096.747009886891	5
1	1023	1101.149398875419	6
1	1029	1104.687288461716	7
1	1031	1104.915753290988	6
1	1035	1107.414587326344	5
1	1042	1118.652551663105	4
1	1046	1125.443801265209	3
1	1057	1140.122269738928	4
1	1059	1143.976512565274	3
1	1063	1145.039035491642	2
1	1068	1145.228878138584	3
1	1074	1155.362133276646	4
1	1077	1155.502701541406	5
1	1085	1161.923829480073	4
1	1092	1168.928751517084	3
1	1097	1178.197571646885	4
1	1099	1179.084407677871	3
1	1107	1184.073497406204	4
1	1112	1193.530150605362	3
1	1119	1199.580324515699	2
2	39	79.900264858735	44.402838973329
2	42	83.5479660891	69.619364622049
2	52	88.207301888615	47.067329930141
2	76	118.763740269934	62.92795738671
2	79	121.990835871549	72.149769873359
2	85	122.394751829561	93.99138960056
2	109	157.047648162116	90.127129110042
2	119	163.051173377317	87.776575833559
2	126	176.647140437273	80.765934390948
2	129	178.13713823678	91.637346404604
2	143	186.008067193907	82.728723203763
2	159	211.375273230953	89.296490978451
2	163	211.578483455815	101.74298848025
2	176	216.826804324519	69.76440112805
2	189	235.840945241509	100.56358102011
2	196	239.643609519117	67.605265267194
2	203	253.338644139003	93.038646639325
2	213	260.953226380518	63.801859007219
2	223	275.395804685541	90.335754831322
2	230	285.318762345705	71.559458749834
2	239	296.909751750065	75.971545942595
2	242	302.432000059635	94.52110911021
2	266	321.750856216531	88.639891967177
2	276	337.374904083554	89.321865467355
2	283	347.006948953495	87.240816066042
2	293	350.76084169792	64.42023776006
2	318	372.018646148499	100.0515375426
2	325	381.199521175586	69.415658714716
2	329	384.354129491839	90.47718454618
2	342	407.313665768597	85.833126744255
2	346	408.144973318558	57.498132504989
2	353	411.851415149868	108.94974514609
2	378	439.589846271556	103.21550874971
2	382	439.76587517187	59.988124575467
2	386	442.839674253482	84.754462507554
2	402	469.013092517853	79.323360002601
2	409	477.295127802063	81.088835713455
2	419	482.37073460361	115.30179367168
2	429	498.607178898528	89.355065727142
2	433	506.81730525801	90.072922930123
2	436	507.398498232942	82.343075138052
2	456	532.647895384579	82.999947736971
2	459	535.125844683498	96.628137389199
2	462	537.854401960504	76.499892512804
2	489	560.798042798414	85.606743739918
2	511	581.333325076847	52.026112820022
2	515	582.575122199485	74.739314699545
2	522	584.067817744798	97.692413572222
2	535	603.09731225483	107.6803415711
2	539	607.607405080924	69.445349317975
2	552	619.657179294153	69.559943936766
2	559	624.421721873804	104.75361607503
2	569	637.244332821572	92.155622267164
2	582	650.747268642298	91.303914911115
2	586	652.857375689781	69.779297104106
2	596	669.321663917506	74.953502477147
2	603	673.355326601303	102.08910156274
2	619	687.066382342017	67.981593036094
2	626	694.08749709837	45.581359644422
2	636	709.144302124621	100.18891467946
2	643	713.438404565676	85.940649323167
2	653	731.348105301148	73.309394815007
2	659	735.597274152094	94.655245544855
2	669	740.794897773302	68.956513281448
2	692	767.284204959868	85.542142516935
2	696	769.311083243226	74.763618614525
2	715	784.849232723933	80.943880677223
2	725	802.949338364413	82.179958270864
2	732	806.666310923172	73.877009430436
2	739	816.074735377912	77.028850461357
2	755	835.725070708429	83.170241864865
2	762	841.674920353105	126.15065477556
2	772	854.264645697546	88.959467529785
2	776	855.997545449061	72.818340559025
2	807	881.520557240581	109.42131557036
2	811	885.600581034084	97.003887398169
2	824	893.697224138302	87.248580066953
2	831	906.530056721528	112.67679910874
2	835	907.548999232238	78.269786860329
2	857	926.375106791963	107.06640412798
2	861	927.781116114927	79.905903795735
2	880	944.700151714493	109.99361433322
2	887	951.387468725441	86.88266121084
2	891	951.974531458688	93.598907282576
2	907	976.303765634073	80.171145242641
2	911	981.154570472423	100.27475832729
2	918	988.99553547613	118.86296554701
2	934	1005.973837128839	115.23917231942
2	944	1015.777658051807	106.74426363781
2	954	1028.456985466179	113.73404312879
2	961	1034.548260718583	105.36588834366
2	974	1055.351934167552	98.666252184193
2	984	1060.781628079709	86.308367247694
2	997	1073.921582293696	131.55200899812
2	1001	1080.089364675801	132.41116743302
2	1008	1085.772811472413	118.84940757416
2	1033	1104.915753290988	105.69190832321
2	1037	1107.414587326344	119.42224182188
2	1044	1118.652551663105	106.58706657589
2	1048	1125.443801265209	73.155184388163
2	1061	1143.976512565274	72.995764131192
2	1065	1145.039035491642	125.72709410917
2	1087	1161.923829480073	119.54125695629
2	1094	1168.928751517084	141.08262481866
2	1101	1179.084407677871	119.23196317162
2	1114	1193.530150605362	75.027988229412
2	1121	1199.580324515699	116.89864622662

