version 2
run Iteration-35-20200521-09:52:53-57068
attr configname Iteration
attr datetime 20200521-09:52:53
attr experiment Iteration
attr inifile omnetpp.ini
attr iterationvars "$i=3, $j=11, $0=15-(3+11)"
attr iterationvarsf i=3,j=11,15-(3+11)-
attr measurement "$i=3, $j=11, $0=15-(3+11)"
attr network Network
attr processid 57068
attr repetition 0
attr replication #0
attr resultdir results
attr runnumber 35
attr seedset 35
itervar i 3
itervar j 11
param **.resourcePool.amount 3
param **.resourcePool1.amount 11
param **.resourcePool2.amount 15-(3+11)
param **.source.interArrivalTime exponential(6min)
param **.delay.delay uniform(4min,28min)
param **.delay1.delay uniform(10min,28min)
param **.delay2.delay uniform(4min,16min)
param **.allocate.resourceModuleName "\"Network.resourcePool\""
param **.allocate1.resourceModuleName "\"Network.resourcePool1\""
param **.allocate2.resourceModuleName "\"Network.resourcePool2\""
param **.deallocate.resourceModuleName "\"Network.resourcePool\""
param **.deallocate1.resourceModuleName "\"Network.resourcePool1\""
param **.deallocate2.resourceModuleName "\"Network.resourcePool2\""
param **.router.randomGateIndex "uniform(0, 1) > 0.2 ? 0 : 1"

vector 0 Network.allocate queueLength:vector ETV
attr interpolationmode sample-hold
attr title "queue length, vector"
vector 1 Network.allocate1 queueLength:vector ETV
attr interpolationmode sample-hold
attr title "queue length, vector"
vector 2 Network.allocate2 queueLength:vector ETV
attr interpolationmode sample-hold
attr title "queue length, vector"
vector 3 Network.sink lifeTime:vector ETV
attr interpolationmode none
attr title "lifetime of arrived jobs, vector"
attr unit s
vector 4 Network.sinkStat lifeTime:vector ETV
attr interpolationmode none
attr title "lifetime of arrived jobs, vector"
attr unit s
0	0	0	0
0	39	2009.128878788785	1
0	41	2185.988368368439	0
0	61	2816.513824443408	1
0	68	3112.059882489642	0
0	149	5775.350130923407	1
0	151	5831.094206539087	0
0	156	5896.450948117192	1
0	158	5914.072085387645	0
0	166	6171.022758309098	1
0	168	6346.763358066926	0
0	178	6390.166631230918	1
0	183	6730.284096777079	0
0	256	9024.538887604973	1
0	261	9070.461079397621	2
0	268	9124.321172964919	3
0	270	9285.250733078656	2
0	275	9293.472304943995	1
0	280	9483.994877225583	2
0	282	9571.856699356077	1
0	292	9765.330471385168	2
0	297	10098.552312754083	3
0	299	10150.849645056961	2
0	304	10218.09220886985	1
0	320	10434.037066850857	0
0	325	10528.917649151559	1
0	327	10663.36711413521	2
0	332	10859.783711735275	3
0	334	10905.861984560646	4
0	336	10963.202902546992	5
0	338	11023.79878354041	6
0	340	11101.677042090533	5
0	350	11166.015587246392	6
0	355	11388.913501578426	7
0	363	11651.580241102771	6
0	368	11705.227729301248	7
0	375	11801.685873001909	6
0	380	12185.702789828276	5
0	388	12444.878277474282	4
0	398	12791.746348327258	5
0	400	12897.67333618561	4
0	408	12975.414422679738	3
0	413	13166.704071156407	4
0	418	13242.601124749718	3
0	423	13277.720528513421	4
0	425	13342.370571971035	3
0	438	13659.988212671765	4
0	440	13661.099988250435	5
0	442	13736.515681076359	6
0	444	13745.971845455563	5
0	449	14011.793165429524	6
0	451	14076.277717195547	5
0	459	14177.064623807459	6
0	461	14184.232971150474	5
0	480	14615.678854569826	6
0	487	14662.091389057522	7
0	501	14903.629546568928	6
0	506	14975.750208377934	5
0	511	15080.947871845262	4
0	521	15556.423567079104	3
0	526	15565.879415788887	2
0	531	15807.956410251931	3
0	533	15818.176745082646	4
0	546	16088.915053833323	3
0	554	16516.214682397259	4
0	556	16578.254658982254	3
0	561	16594.705648202491	4
0	563	16600.020150833412	5
0	576	16785.33324520403	4
0	581	16938.390313688713	3
0	591	17068.035199968689	4
0	593	17189.893653119474	5
0	603	17630.1665600965	6
0	608	17752.452625438667	5
0	613	17859.951273010312	4
0	618	17876.492519210474	5
0	620	18013.494737306863	6
0	630	18229.332179794116	7
0	632	18283.125891008614	6
0	640	18460.819635153679	7
0	642	18470.038126003045	6
0	653	18837.302902445293	5
0	663	19099.960199364661	4
0	668	19152.989525713122	3
0	681	19475.591405708391	2
0	694	19863.613096623598	3
0	696	19889.284264723263	4
0	698	20065.769623141777	5
0	700	20185.236074880897	4
0	716	20396.094011084422	5
0	718	20441.693069705008	4
0	723	20518.616025116343	3
0	731	20742.968197457588	2
0	747	21121.415276659535	3
0	754	21155.285553256683	4
0	756	21374.991955488983	5
0	761	21491.368889875806	4
0	766	21587.793373961962	5
0	773	21943.727173622746	4
0	784	22080.998457067846	3
0	800	22863.387994919021	2
0	805	22907.485332444819	3
0	807	23010.865656652688	2
0	812	23024.348887011505	1
0	820	23271.316104725606	2
0	830	23669.736379042364	1
0	835	23766.811971401511	2
0	837	23807.860372107525	1
0	850	24165.136959918975	0
0	906	25421.759148265121	1
0	911	25697.673796255357	2
0	918	25972.979046806172	1
0	923	26197.133589465979	0
0	931	26320.229849966998	1
0	933	26383.317886843756	0
0	950	26615.767997627921	1
0	952	26672.922266279224	0
0	986	27870.281661066569	1
0	988	27885.460427780513	0
0	996	27932.726599928996	1
0	998	27943.75462669082	0
0	1003	28051.508859790153	1
0	1005	28232.102292564604	2
0	1012	28390.868520947827	1
0	1020	28666.050850972867	2
0	1022	28787.120805130815	3
0	1024	29115.888772916774	4
0	1031	29189.312513201908	3
0	1036	29216.179182086949	2
0	1041	29290.147588876078	3
0	1049	29401.455916712714	2
0	1054	29595.114773769008	3
0	1056	29758.951020006475	4
0	1063	29994.232396562462	3
0	1074	30154.782242804245	2
0	1087	30344.636232782965	1
0	1092	30531.935188278035	0
0	1097	30835.570486141452	1
0	1099	30849.375499222575	2
0	1109	31018.064330356849	1
0	1117	31455.939010224716	0
0	1122	31538.951939835255	1
0	1130	31693.674624529546	0
0	1151	32479.840170354298	1
0	1156	32538.936519035996	2
0	1158	32557.600133145882	1
0	1163	32660.079450897352	0
0	1168	32749.880061517628	1
0	1178	32908.312218226717	2
0	1185	33231.422267432047	1
0	1190	33314.344811354946	2
0	1192	33359.67479166097	1
0	1197	33532.686208921207	0
0	1207	33881.808639810626	1
0	1212	33939.163363903241	0
0	1217	34052.589503821709	1
0	1227	34152.649190206891	0
0	1232	34231.361768930003	1
0	1253	34718.599363939997	2
0	1255	34821.535737595263	3
0	1260	35114.665194290413	2
0	1270	35259.236612263571	3
0	1272	35474.119343079107	2
0	1277	35494.288631684672	3
0	1279	35570.250339838665	4
0	1281	35613.53681132651	3
0	1294	35876.405894147886	2
0	1299	35939.790251866894	3
0	1301	35963.656205899494	2
0	1314	36518.756264564461	1
0	1319	36680.658557141854	0
0	1373	38549.966991221949	1
0	1375	38572.303072200448	2
0	1377	38618.274962223354	3
0	1379	38692.408027787977	2
0	1384	38699.56848321934	3
0	1391	38909.669464639413	2
0	1396	39036.831026302148	3
0	1407	39308.549015587789	4
0	1409	39338.962418324339	3
0	1414	39355.941023794372	4
0	1421	39430.750978470538	5
0	1426	39668.13081533143	4
0	1431	39815.711334579571	5
0	1433	39847.812955965572	4
0	1438	40003.396229536395	5
0	1448	40256.778511343775	6
0	1450	40397.519635706234	5
0	1458	40625.455697332279	6
0	1460	40709.966980684914	7
0	1462	40730.429736897497	8
0	1467	40856.065968563133	7
0	1477	41329.902398203784	6
0	1482	41344.753049261613	7
0	1484	41347.030478310377	6
0	1497	41429.456436134723	7
0	1499	41440.53543958028	8
0	1501	41480.247593221164	9
0	1509	42034.68096878289	8
0	1525	42382.394575056904	7
0	1535	42657.366809476704	6
0	1540	42764.999864346542	7
0	1547	42925.285742356467	6
0	1552	42939.230586131475	7
0	1554	42989.832708392829	6
0	1562	43174.409291743326	5
0	1567	43230.349070898597	6
0	1569	43271.478611619828	7
0	1571	43377.411712866598	8
0	1573	43485.814907587159	7
0	1581	43604.707113840813	8
0	1583	43728.975308176229	9
0	1590	43974.762573343986	8
0	1606	44360.502025422597	9
0	1608	44453.444203171446	10
0	1610	44473.074379791111	9
0	1621	44575.463910325456	8
0	1626	44643.703620073125	9
0	1628	44749.748168167943	8
0	1644	45167.296675731713	7
0	1649	45515.197149281675	6
0	1654	45555.264911024937	7
0	1656	45556.462997723908	6
0	1669	45822.517411824853	5
0	1680	45974.666396304059	4
0	1688	46166.764276950901	5
0	1695	46650.218584258691	6
0	1700	46729.376465235443	5
0	1705	46922.86684575426	4
0	1721	47046.75810365006	5
0	1723	47101.533244847345	4
0	1731	47180.766415557992	5
0	1733	47404.28742014298	4
0	1738	47444.947058837244	5
0	1748	48002.292054154539	6
0	1750	48103.872344856435	5
0	1755	48135.202006235431	6
0	1760	48212.058811963879	7
0	1765	48337.231567433039	8
0	1772	48680.353774874496	7
0	1783	48930.101907019788	6
0	1788	48991.385701824518	5
0	1798	49280.095317316526	4
0	1806	49384.816261606474	5
0	1811	49566.772457067462	4
0	1821	50094.596136626395	3
0	1826	50347.038410565841	2
0	1834	50497.805887227231	1
0	1850	50894.943405081307	2
0	1855	50984.18302663097	1
0	1860	51034.405687066917	2
0	1862	51104.897203016399	3
0	1869	51764.871553685098	4
0	1874	51787.146790443434	5
0	1887	51970.18610209136	4
0	1892	51999.850964885734	5
0	1894	52031.524921794706	4
0	1904	52503.008654755148	3
0	1912	52732.229157648075	2
0	1925	53003.599437405477	3
0	1927	53039.309537549787	2
0	1932	53048.3736158205	1
0	1948	53440.628008921239	0
0	1960	53831.846438688958	1
0	1962	54030.251617756956	0
0	1978	54193.547431132007	1
0	1980	54329.379534651134	0
0	2082	57552.365331891277	1
0	2084	57557.220202158371	2
0	2086	57687.621900682984	1
0	2091	57717.884079495437	2
0	2093	57777.720788812061	1
0	2098	57828.28643965674	2
0	2100	57963.398598937033	1
0	2110	58112.870565978926	0
0	2120	58504.179391307563	1
0	2122	58505.232096226223	2
0	2127	58777.273956892808	1
0	2137	58938.445559652652	2
0	2142	58976.37162378095	3
0	2147	59092.042829377292	2
0	2155	59418.112274138373	1
0	2165	59425.750278813561	0
0	2321	65520.394197976255	1
0	2328	65890.618975463186	0
0	2344	66553.423370668215	1
0	2346	66563.724244816832	0
0	2428	68931.654408127866	1
0	2433	69080.450805318623	2
0	2435	69107.532651107939	3
0	2442	69211.477886459192	2
0	2450	69424.703518846233	3
0	2452	69441.64534359563	4
0	2454	69537.227989717872	3
0	2464	69697.717822838762	2
0	2472	69707.81462250807	3
0	2474	69943.679609878322	2
0	2479	70025.269539787919	1
0	2484	70197.010272454658	0
0	2494	70286.584313374611	1
0	2502	70704.301135657565	2
0	2509	70863.249608007015	3
0	2514	71071.03370423259	4
0	2525	71374.764679579398	3
0	2535	71463.760764125922	2
0	2540	71551.320287717292	3
0	2542	71573.756171784849	2
0	2552	71918.278141358311	3
0	2557	72421.352107025237	2
0	2562	72476.768921746275	1
0	2575	72510.042862679997	0
0	2580	72547.089725801686	1
0	2582	72745.470255884764	2
0	2587	72930.465521560468	3
0	2597	73114.637925050707	2
0	2602	73435.457657661477	1
0	2607	73479.515414530608	2
0	2609	73599.768147132811	3
0	2616	73671.981229646523	4
0	2618	73786.553885287008	3
0	2623	73886.304721340508	4
0	2636	74465.53155581244	5
0	2652	74644.477256866825	6
0	2654	74711.487956292482	5
0	2659	74714.646372284928	4
0	2664	74875.150320720881	5
0	2666	74996.151071112604	6
0	2668	75047.739775611422	5
0	2673	75374.547651804538	4
0	2678	75399.549707111159	3
0	2688	75587.492981946306	4
0	2695	75848.755215781473	5
0	2697	75851.718512477107	6
0	2699	75933.854407577178	5
0	2719	76542.785605026743	4
0	2732	76964.074522752503	3
0	2737	77000.574106968494	2
0	2742	77036.070715180077	3
0	2744	77055.535165814928	4
0	2746	77107.339140404503	5
0	2753	77426.298950517288	6
0	2755	77528.84770842801	7
0	2757	77545.675946047864	6
0	2770	77902.545207029492	7
0	2775	77944.447842521927	6
0	2780	77958.877162843497	5
0	2793	78209.978370032098	6
0	2795	78249.124156704507	5
0	2800	78509.856142264048	4
0	2808	78620.892851833221	5
0	2824	79128.106333767357	6
0	2831	79221.10270367044	7
0	2833	79288.615674696417	6
0	2838	79309.174744647185	5
0	2843	79419.729857055805	4
0	2848	79925.757259120676	5
0	2858	80071.19171572123	4
0	2866	80177.903863601888	5
0	2868	80253.682760622111	6
0	2870	80355.184604986784	7
0	2872	80477.584367524495	8
0	2874	80522.475475205443	7
0	2890	80934.650647400282	6
0	2895	80965.209890514167	5
0	2900	80968.626849831594	6
0	2910	81217.34589971562	7
0	2912	81430.295468139819	8
0	2914	81531.941494866147	9
0	2916	81546.579967140865	10
0	2921	81751.127960954051	9
0	2926	81787.051172315629	8
0	2939	82145.435707028295	9
0	2947	82443.977448616366	8
0	2952	82455.657775889319	9
0	2954	82498.967499306761	8
0	2967	83076.244888764064	7
0	2983	83428.914316877277	6
0	2993	83930.290226761441	5
0	2998	83971.192367321216	4
0	3011	84228.38140439723	5
0	3021	84649.010834789239	4
0	3026	84764.475040830226	3
0	3034	85033.306199315926	4
0	3041	85086.193093870016	5
0	3043	85235.98792855833	4
0	3059	85547.412557251306	3
0	3072	85936.576748278181	2
0	3077	85978.980169593091	3
0	3079	86101.802920760338	4
0	3081	86167.998935042285	3
0	3086	86181.917175970526	2
0	3099	86459.614611140938	1
0	3104	86493.475406637751	0
0	3109	86547.175372802454	1
0	3122	86885.809183802645	0
0	3127	86932.458950828535	1
0	3129	86949.99332430061	0
0	3139	87218.209810561135	1
0	3144	87405.72207037152	2
0	3163	87988.036766037488	3
0	3165	88001.355929060244	2
0	3170	88074.765120803864	1
0	3180	88209.427923646014	0
0	3188	88330.07427162218	1
0	3198	88616.364859316688	0
0	3206	88857.357169066789	1
0	3208	88890.786124406401	2
0	3215	89096.762659235262	1
0	3223	89282.585786663422	2
0	3225	89545.626015461536	1
0	3235	89842.385513089139	2
0	3237	89863.718689971071	3
0	3239	89942.618338003309	2
0	3244	89943.255836425685	1
0	3255	89980.282120604258	0
0	3260	90130.528256057867	1
0	3267	90511.877577536902	2
0	3275	90791.928846959215	1
0	3280	90874.31598151608	2
0	3282	90929.324798792155	1
0	3295	91228.606231568717	0
0	3336	92456.427413963947	1
0	3338	92558.028095697666	2
0	3343	92815.307579067862	1
0	3353	92908.577235548162	0
0	3358	93120.632444122714	1
0	3360	93473.203746399247	0
0	3415	94713.243587820067	1
0	3417	94809.686142173534	2
0	3422	95063.74298799083	1
0	3430	95119.822226187202	0
0	3440	95172.319429532636	1
0	3445	95389.00293212374	2
0	3447	95660.055535679604	3
0	3449	95663.195350956281	4
0	3456	95935.796335891638	5
0	3461	96185.722651431551	4
0	3471	96263.349166729007	3
0	3482	96735.87550001404	2
0	3495	97106.892915226102	3
0	3497	97396.939505699417	4
0	3499	97402.025161304031	3
0	3504	97452.615147294691	2
0	3509	97479.585645219299	1
0	3514	97614.973436932444	2
0	3519	97660.038911091047	3
0	3521	97760.947361885365	4
0	3526	97961.235693720693	5
0	3533	98084.66519861837	6
0	3538	98302.415803500789	7
0	3545	98525.818340355745	6
0	3561	98982.076923197123	5
0	3566	99026.644744530771	4
0	3571	99135.913044201425	3
0	3576	99447.71792042618	4
0	3583	99572.899118547664	5
0	3585	99704.526049680975	6
0	3595	99767.510582148995	7
0	3600	99966.735516651276	8
0	3610	100423.317215398405	7
0	3615	100561.568024667195	6
0	3625	100613.821577748272	5
0	3633	100815.132291450224	6
0	3635	100867.395185393894	7
0	3637	100877.807998821042	8
0	3639	100948.946558745793	7
0	3644	100957.039326217934	8
0	3646	100970.653342289838	7
0	3659	101392.964387556526	6
0	3675	101722.155247094325	5
0	3680	101842.566477497558	6
0	3682	101895.842043564175	5
0	3693	102442.976880023471	4
0	3701	102554.213786063891	5
0	3708	102664.136260346001	6
0	3710	102779.036322564338	5
0	3720	102996.701741127285	4
0	3728	103053.384650634817	3
0	3733	103273.339324501985	4
0	3743	103597.153208972586	5
0	3745	103817.719559699748	4
0	3758	103922.023393685214	3
0	3763	104051.756058291966	4
0	3768	104124.855649007472	3
0	3779	104630.194086382381	2
0	3792	104893.844212322593	3
0	3797	105155.407620610333	4
0	3799	105192.121507294927	3
0	3804	105199.261310067256	4
0	3806	105227.725547837309	3
0	3811	105472.992309548412	2
0	3816	105474.299176068826	3
0	3823	105550.705351812753	2
0	3831	105591.70487384375	3
0	3833	105695.076822200209	4
0	3838	105850.198716477011	3
0	3843	106034.373016601416	2
0	3848	106311.218082187382	3
0	3855	106581.814970396244	4
0	3857	106590.495154584042	3
0	3871	106730.337777721733	4
0	3873	106801.444016276863	5
0	3884	107068.735263964149	4
0	3889	107082.043431878541	3
0	3894	107094.122667237036	4
0	3901	107250.911675814599	5
0	3903	107356.086377712182	4
0	3908	107357.969274364863	3
0	3913	107457.696188567309	4
0	3920	107625.616340852526	5
0	3925	107851.29243945888	4
0	3950	108756.059759751988	5
0	3952	108770.603772245799	4
0	3957	108833.428912261716	3
0	3962	108980.169337543895	4
0	3969	109204.736005521865	5
0	3971	109241.550554796659	6
0	3973	109477.795750817272	5
0	3983	109746.021304227746	6
0	3988	110087.202956533061	7
0	3990	110165.186116008076	6
0	4000	110249.814624965643	5
0	4005	110287.604558228808	6
0	4010	110367.987010875932	5
0	4015	110391.762631079965	6
0	4017	110650.253143856517	5
0	4022	110739.862929748318	6
0	4038	111236.079297458741	5
0	4051	111323.928698982493	6
0	4053	111446.902356743962	7
0	4055	111464.666149715177	6
0	4060	111499.189483916375	5
0	4070	111619.06589574412	4
0	4081	112269.106108347169	3
0	4091	112419.199350515708	4
0	4093	112439.95611717752	5
0	4101	112642.871059954618	4
0	4106	112740.866448686869	5
0	4108	113030.348052924487	4
0	4116	113090.77861971169	5
0	4118	113141.710267761937	4
0	4123	113185.867863657124	5
0	4125	113227.011681322058	6
0	4135	113294.708544413837	7
0	4137	113395.422888159151	8
0	4139	113445.070054747616	7
0	4149	113866.079648496798	6
0	4165	114247.793066132568	7
0	4170	114301.264104251946	8
0	4172	114352.134249538635	7
0	4177	114473.854235676595	8
0	4182	114589.314908703777	7
0	4187	114682.948593455234	8
0	4189	114759.249993242325	9
0	4194	114797.713777074805	8
0	4207	115132.003843790418	9
0	4209	115499.077819829795	8
0	4225	115946.971853554701	7
0	4230	116358.154003938648	6
0	4235	116413.060731725982	5
0	4245	116436.661379811677	6
0	4247	116536.626114656859	7
0	4252	116591.329884590452	8
0	4259	116869.621478461181	7
0	4267	117033.360265029582	6
0	4272	117038.620783154295	7
0	4279	117160.294621095513	6
0	4284	117287.279794904641	7
0	4291	117445.602902981725	8
0	4293	117502.118033120623	7
0	4301	117863.01344099686	6
0	4306	117872.488319308322	7
0	4319	118332.953130893861	6
0	4332	118570.927792625716	5
0	4337	118589.532817585382	4
0	4361	119073.565095687499	3
0	4366	119152.106868150298	4
0	4368	119179.522278970612	5
0	4370	119401.17349944927	6
0	4375	119586.142669834648	5
0	4380	119687.859053147945	4
0	4393	119900.791328834584	3
0	4398	119937.814013362216	4
0	4400	119976.377889881026	5
0	4405	120022.638451887283	4
0	4410	120030.925776206408	3
0	4423	120308.661472215768	4
0	4425	120370.443269946997	5
0	4427	120415.855606199031	6
0	4429	120597.301187880504	7
0	4431	120606.194628917132	6
0	4436	120722.878450772846	7
0	4438	120859.863496219728	6
0	4448	120920.537438622594	7
0	4453	121040.849295959328	6
0	4469	121483.358637975743	5
0	4477	121670.139807557676	4
0	4493	122042.090779219832	5
0	4495	122165.645587391429	6
0	4503	122248.006930222724	5
0	4508	122250.985786428678	6
0	4510	122363.873213144233	5
0	4526	122663.643515252028	4
0	4531	122772.630675062585	5
0	4533	122839.227718148006	6
0	4535	122924.947607942889	7
0	4537	122953.136135662188	6
0	4545	123029.643547443662	5
0	4550	123479.751049369199	6
0	4557	123581.712820364151	5
0	4562	123628.648268163655	4
0	4573	123829.133474614	5
0	4581	124015.593432029212	6
0	4583	124058.461095081856	5
0	4596	125000.223614039113	4
0	4601	125042.825667915855	3
0	4606	125112.419249371145	2
0	4614	125147.140808327932	3
0	4624	125335.183149600615	2
0	4629	125338.003104008748	3
0	4636	125778.140622286115	2
0	4644	125838.880561828032	3
0	4651	126213.890126588716	4
0	4656	126299.263621449921	3
0	4672	126870.813634606292	2
0	4677	126875.937951711927	1
0	4682	126998.858535240748	2
0	4684	127131.530509718114	3
0	4689	127218.648521557901	2
0	4694	127241.960192676999	3
0	4696	127264.151329603967	4
0	4698	127273.026196246941	5
0	4708	127645.063805610392	4
0	4713	127758.886826304921	5
0	4721	128026.201205236827	4
0	4726	128119.218293607686	3
0	4739	128386.135983903143	4
0	4741	128426.156308340123	3
0	4746	128642.078882194413	4
0	4751	128925.155380314206	3
0	4761	129126.675065972362	2
0	4772	129453.07287021189	1
0	4777	129615.617053932684	2
0	4790	130068.285691235514	3
0	4792	130070.169747939323	2
0	4805	130431.905326504865	3
0	4807	130438.371552706216	2
0	4812	130472.402418601345	3
0	4819	130640.386949727526	2
0	4827	130848.894898213897	1
0	4843	131618.653236806844	0
0	4946	135546.867491757443	1
0	4951	135866.161758913399	0
0	5051	139393.550892644228	1
0	5058	139481.756967444273	2
0	5060	139708.844504686437	1
0	5065	139709.3905487891	0
0	5078	139957.661186552818	1
0	5080	140277.057252028183	0
0	5120	141370.257323874688	1
0	5127	141396.354936203627	2
0	5132	141469.374180646861	1
0	5137	141533.393310109815	2
0	5147	141808.114272315471	3
0	5149	141977.475915785394	2
0	5157	142179.620158808554	1
0	5168	142386.900824486606	0
0	5189	143448.411236696277	1
0	5191	143546.402630034349	0
0	5196	143547.953592391518	1
0	5201	143610.319159055377	0
0	5218	143976.377932189169	1
0	5228	144549.002705817883	2
0	5233	144668.803433933323	3
0	5235	144783.698099701479	4
0	5242	144854.768031296024	5
0	5244	144897.669455508019	4
0	5249	144954.645813304446	3
0	5254	145087.910674635403	2
0	5259	145185.297717037707	3
0	5264	145491.738015424542	2
0	5277	145953.068330038421	1
0	5285	145990.44299721237	2
0	5287	146135.124094436067	3
0	5289	146211.207610577751	4
0	5291	146231.581932269331	5
0	5293	146273.617549673642	6
0	5298	146356.005598652623	5
0	5303	146570.893426412965	4
0	5311	146645.466864897072	5
0	5321	146951.986566606991	4
0	5326	146964.411066742282	5
0	5328	147013.842366287989	6
0	5330	147084.823443583567	7
0	5340	147539.939348982896	6
0	5348	147973.296719986461	5
0	5358	148073.194005761378	4
0	5366	148247.230805614993	5
0	5379	148725.544806879737	6
0	5381	148933.903720315061	5
0	5389	148994.363639975216	4
0	5399	149173.986239481233	3
0	5404	149220.895171005597	4
0	5406	149343.162315330743	5
0	5408	149426.639165422335	6
0	5410	149431.141190465622	5
0	5415	149803.16679427984	4
0	5423	149995.83144367867	3
0	5433	150171.262327270832	2
0	5444	150636.613154123984	1
0	5452	150697.988089419155	2
0	5454	150713.340391392138	1
0	5459	150728.293057393365	0
0	5532	152857.387109459617	1
0	5539	153149.818106475323	2
0	5541	153164.328006369635	1
0	5546	153374.74916600285	0
0	5585	154293.967084616174	1
0	5590	154592.67429674968	2
0	5595	154598.505923655314	3
0	5600	154641.459667500073	2
0	5605	154814.971672449967	3
0	5615	155215.323829102419	4
0	5617	155253.651754439445	5
0	5619	155289.053255012322	4
0	5624	155312.208901231392	5
0	5626	155365.127362575347	4
0	5636	155528.731388819461	3
0	5644	155794.821618457382	2
0	5654	156013.489646045554	1
0	5659	156051.728586781022	2
0	5661	156288.426723924397	3
0	5671	156635.911820528155	2
0	5676	156668.09607385664	1
0	5689	156793.275575008208	0
0	5864	162222.845678197443	1
0	5866	162349.848921420541	0
0	5876	162554.870517676163	1
0	5878	162709.297504990868	2
0	5880	162728.825966502097	1
0	5885	162772.717138432719	2
0	5892	163123.021562091147	3
0	5894	163282.940121125911	2
0	5899	163432.207177318766	1
0	5907	163657.672009978077	2
0	5920	163947.257483191922	1
0	5928	164077.361890841032	2
0	5930	164111.491714749441	3
0	5940	164333.81841629176	4
0	5942	164389.804639043775	3
0	5955	164837.283807046721	4
0	5957	164853.708516620233	3
0	5962	164892.919661384557	2
0	5975	165239.433648174304	3
0	5977	165326.966845599855	4
0	5979	165359.190222546592	3
0	5984	165764.065378392604	2
0	5989	165877.803803681138	3
0	5999	166007.904484589134	2
0	6004	166026.688350545971	3
0	6014	166484.658840894833	2
0	6022	166686.76222023603	1
0	6032	166789.001251231529	2
0	6034	166930.954643013444	1
0	6045	167178.807661713488	2
0	6047	167207.108204255926	3
0	6049	167295.539376139775	2
0	6057	167472.283901628588	1
0	6070	167862.525484869745	0
0	6078	168171.549229643887	1
0	6088	168406.516107852128	0
0	6099	168572.185149381051	1
0	6101	168689.968091994658	0
0	6181	171588.59292325713	1
0	6183	171621.78573254749	2
0	6188	171875.60540564336	1
0	6198	171994.805456298567	0
0	6206	172229.11287876976	1
0	6208	172256.872177972239	2
0	6210	172301.310070092953	1
0	6215	172522.991939236256	2
0	6217	172573.031525090115	1
0	6222	172736.554760102874	2
0	6224	172895.873089234903	3
0	6231	173005.546279336489	2
0	6236	173030.062920481683	1
0	6250	173376.820739246683	0
0	6255	173500.333412557557	1
0	6268	173878.277147981501	0
0	6323	175802.562236728633	1
0	6330	175848.696683777225	2
0	6335	176014.150386789451	1
0	6340	176095.166594256823	2
0	6345	176340.705116125474	3
0	6347	176357.507159084931	2
0	6357	176587.536276151846	3
0	6359	176714.85944122226	2
0	6383	177419.119076879332	1
0	6388	177432.863019562064	0
0	6393	177440.819532252205	1
0	6395	177480.327430971816	0
0	6403	177803.088525417598	1
0	6405	177865.565042578533	0
0	6410	178097.816775624134	1
0	6412	178151.881337455046	2
0	6419	178411.511391187483	3
0	6424	178482.10636370714	2
0	6429	178675.881324598203	1
0	6445	179069.292331865726	0
0	6450	179113.08940740066	1
0	6452	179124.045099290825	2
0	6457	179372.211993673454	1
0	6462	179447.0892623015	2
0	6469	179538.389603028425	3
0	6471	179723.577646736734	4
0	6478	179865.189286141394	3
0	6489	180124.02723275955	2
0	6494	180195.62985372424	1
0	6510	180419.866552221922	2
0	6515	180531.73315093547	1
0	6520	180755.152223595987	0
0	6525	180793.853122033332	1
0	6532	181183.324991396367	0
0	6628	183704.096177768353	1
0	6641	184192.494655126219	2
0	6643	184274.733934773176	3
0	6648	184460.269376984682	2
0	6658	184789.80377588459	1
0	6668	185044.061488970067	0
0	6680	185148.673164534932	1
0	6682	185242.18636011678	2
0	6687	185616.221873449593	3
0	6708	186118.012038172203	4
0	6710	186147.217190055992	3
0	6715	186177.207236867973	4
0	6717	186315.57002148739	5
0	6719	186435.438896231732	4
0	6724	186562.481461235176	5
0	6726	186571.47751194879	4
0	6731	186594.818403050031	3
0	6741	186816.783652282204	2
0	6746	187021.649345732504	3
0	6748	187428.532990149043	4
0	6764	187825.437032999515	5
0	6766	187856.11678213864	6
0	6773	187878.143835081603	5
0	6778	187915.664878375556	4
0	6786	188075.812539048872	3
0	6794	188132.779182853746	4
0	6796	188181.808206970565	5
0	6801	188542.256542518798	6
0	6803	188549.131228924177	5
0	6813	188984.428995453853	6
0	6815	189196.702175140109	5
0	6820	189326.913675083663	4
0	6836	189700.446629347482	5
0	6838	189774.994511417773	4
0	6851	190186.290963739536	3
0	6856	190330.243700905587	2
0	6861	190470.839847028635	1
0	6871	190553.283648888059	2
0	6879	190737.140008061853	1
0	6892	191054.592770077017	0
0	6912	191446.795393927103	1
0	6920	191584.213716533133	0
0	6937	191993.330437960253	1
0	6942	192132.770866080847	0
0	7006	194711.215340034402	1
0	7013	195014.254197965978	0
0	7018	195242.595457035304	1
0	7023	195302.180366286115	0
0	7153	198432.664957563628	1
0	7158	198559.439828540758	0
0	7184	199361.651440641411	1
0	7186	199457.827686701224	2
0	7188	199511.557298708335	1
0	7193	199545.537619064362	0
0	7210	200090.975303164725	1
0	7220	200349.280678700284	0
0	7369	205277.248964526784	1
0	7371	205535.935842070698	0
0	7462	208431.927507651278	1
0	7464	208463.267506475092	2
0	7466	208617.987311648916	3
0	7468	208644.372224005127	4
0	7470	208662.65439767042	3
0	7475	208914.707875810834	2
0	7480	209008.73959306279	1
0	7490	209406.244969752645	2
0	7492	209479.753739299699	3
0	7499	209589.105907169105	4
0	7501	209713.855704848703	3
0	7506	209757.199825358617	4
0	7508	209997.460884873684	5
0	7510	210049.698680923983	6
0	7518	210246.277936771783	5
0	7526	210464.414667534675	6
0	7528	210468.424028937753	5
0	7538	210595.959612500163	4
0	7554	211146.153294995612	5
0	7556	211185.496692620489	4
0	7561	211336.583106104525	3
0	7574	211470.571136881646	2
0	7579	211664.164669735518	3
0	7581	211799.146966956426	4
0	7583	211806.722822803769	5
0	7593	211871.266060099277	4
0	7601	212067.670498236371	5
0	7611	212784.353168529507	4
0	7619	212879.956825781854	3
0	7624	212942.748599660651	4
0	7631	213188.350789360319	5
0	7633	213208.431700278314	4
0	7638	213313.994309790704	3
0	7643	213363.166910137582	4
0	7648	213503.302546811339	3
0	7658	213649.479478482798	4
0	7660	213927.195867146921	5
0	7662	213971.607117344929	6
0	7672	213997.039396238562	5
0	7680	214116.026773410228	6
0	7688	214360.393286605414	5
0	7693	214620.370187256388	6
0	7700	214689.47465229431	5
0	7705	214697.704213854614	6
0	7707	214888.489943407748	5
0	7715	215005.757741085639	6
0	7717	215237.364704568919	5
0	7722	215281.538729090017	6
0	7727	215439.173835185333	7
0	7734	215478.542164449165	8
0	7736	215552.378665460226	9
0	7741	215817.507983103464	10
0	7743	215899.568677839872	9
0	7748	215932.811383349973	10
0	7750	215984.094796628032	9
0	7755	216006.201595213505	8
0	7763	216108.597273841771	9
0	7770	216273.264911808346	8
0	7778	216359.065380944861	9
0	7788	216745.439696010443	8
0	7793	216935.060689074036	7
0	7801	217304.346481362254	8
0	7817	217376.307583526379	9
0	7819	217476.910458464416	8
0	7830	217833.428455811974	7
0	7835	217909.842558987711	6
0	7845	218025.26724196622	5
0	7850	218279.566383172807	4
0	7858	218452.224666186753	5
0	7860	218532.040410554861	6
0	7873	218846.693009693416	5
0	7878	218891.067829428484	6
0	7880	218917.237170456607	7
0	7882	219088.065151907776	6
0	7887	219225.058481087866	7
0	7897	219486.596136726711	6
0	7905	219535.666736299184	7
0	7910	219684.586317455244	8
0	7912	219843.398864377531	7
0	7922	219899.982649494943	6
0	7927	219931.523557325742	7
0	7929	220477.705772739884	6
0	7942	220685.751197412882	5
0	7950	220763.508831966909	4
0	7958	220917.815243197134	5
0	7960	220972.167969831845	6
0	7962	220974.069186859105	5
0	7967	221009.141914201415	6
0	7974	221149.099787185897	7
0	7984	221572.915154058727	6
0	7989	221649.128948083787	7
0	7994	221752.504708317157	6
0	8013	222447.508997656677	5
0	8023	222499.34708327992	6
0	8025	222569.683686631249	7
0	8027	222752.563963641461	6
0	8032	222762.213067077372	5
0	8042	223022.502238540684	6
0	8044	223039.187333245071	5
0	8052	223168.286871909129	6
0	8054	223190.725253184374	5
0	8062	223331.930882427088	6
0	8083	223958.222340829942	5
0	8091	224214.234197397026	4
0	8096	224224.288358235489	5
0	8103	224357.702838222451	6
0	8105	224374.696006835087	7
0	8110	224437.080025376804	8
0	8112	224686.913520691033	7
0	8117	224781.55371214846	6
0	8130	225086.186253067613	7
0	8132	225116.487568253566	8
0	8134	225130.51297552404	9
0	8141	225249.350207150254	8
0	8146	225260.209911425646	7