version 2
run Iteration-51-20200521-09:53:57-64680
attr configname Iteration
attr datetime 20200521-09:53:57
attr experiment Iteration
attr inifile omnetpp.ini
attr iterationvars "$i=5, $j=6, $0=15-(5+6)"
attr iterationvarsf i=5,j=6,15-(5+6)-
attr measurement "$i=5, $j=6, $0=15-(5+6)"
attr network Network
attr processid 64680
attr repetition 0
attr replication #0
attr resultdir results
attr runnumber 51
attr seedset 51
itervar i 5
itervar j 6
param **.resourcePool.amount 5
param **.resourcePool1.amount 6
param **.resourcePool2.amount 15-(5+6)
param **.source.interArrivalTime exponential(6min)
param **.delay.delay uniform(4min,28min)
param **.delay1.delay uniform(10min,28min)
param **.delay2.delay uniform(4min,16min)
param **.allocate.resourceModuleName "\"Network.resourcePool\""
param **.allocate1.resourceModuleName "\"Network.resourcePool1\""
param **.allocate2.resourceModuleName "\"Network.resourcePool2\""
param **.deallocate.resourceModuleName "\"Network.resourcePool\""
param **.deallocate1.resourceModuleName "\"Network.resourcePool1\""
param **.deallocate2.resourceModuleName "\"Network.resourcePool2\""
param **.router.randomGateIndex "uniform(0, 1) > 0.2 ? 0 : 1"

vector 0 Network.allocate queueLength:vector ETV
attr interpolationmode sample-hold
attr title "queue length, vector"
vector 1 Network.allocate1 queueLength:vector ETV
attr interpolationmode sample-hold
attr title "queue length, vector"
vector 2 Network.allocate2 queueLength:vector ETV
attr interpolationmode sample-hold
attr title "queue length, vector"
vector 3 Network.sink lifeTime:vector ETV
attr interpolationmode none
attr title "lifetime of arrived jobs, vector"
attr unit s
vector 4 Network.sinkStat lifeTime:vector ETV
attr interpolationmode none
attr title "lifetime of arrived jobs, vector"
attr unit s
0	0	0	0
0	448	12051.69335036514	1
0	450	12181.292537457073	2
0	452	12227.863834434043	1
0	461	12323.444287131831	0
0	466	12511.948308532986	1
0	468	12561.387949494191	2
0	470	12684.377600925682	3
0	472	12768.686200303231	4
0	474	12940.471191830313	5
0	476	12946.380270941866	4
0	481	12961.188296681578	3
0	486	12977.382048346045	2
0	491	13264.734507648957	1
0	500	13420.680886401172	0
0	562	14405.490794389089	1
0	564	14429.890090754564	0
0	584	14670.96198289089	1
0	594	14960.733212561024	0
0	640	15896.991271230943	1
0	646	15992.307758957756	0
0	654	16067.295486904219	1
0	661	16089.79505859905	0
0	799	18228.801982978412	1
0	801	18263.483780039611	0
0	810	18412.306765617722	1
0	812	18446.542101656257	2
0	818	18657.254526839641	3
0	824	18899.126288932185	4
0	826	18909.991017220679	3
0	835	19048.193435236636	2
0	848	19312.794358459162	1
0	853	19423.243590518779	0
0	1129	27411.610344519894	1
0	1131	27566.625413441761	0
0	1504	39692.828142361625	1
0	1506	39706.38509617205	2
0	1512	39790.276343165405	1
0	1517	39925.755942884255	0
0	1815	47533.467677849012	1
0	1829	47763.220432665769	0
0	1834	47779.387531951185	1
0	1840	47915.737818787582	2
0	1842	47944.195033014439	1
0	1847	47999.89350486879	2
0	1849	48015.726880286459	1
0	1854	48241.358088143788	0
0	1897	48901.025080807677	1
0	1903	49073.955225852912	0
0	2349	59637.586999282286	1
0	2351	59669.6608090409	2
0	2353	59671.952622912939	3
0	2359	59817.731346619563	2
0	2364	59899.983995642606	1
0	2369	60002.117869483763	0
0	2374	60087.45624214619	1
0	2380	60265.762261432843	0
0	2385	60434.109924370819	1
0	2387	60526.742340015001	0
0	2392	60559.592745655478	1
0	2394	60628.190393719915	0
0	2410	61030.896666941831	1
0	2412	61082.613299117857	0
0	2416	61114.339554770952	1
0	2423	61398.113427657727	0
0	2453	61604.909779777218	1
0	2455	61623.878565838341	2
0	2457	61627.436427348978	1
0	2487	61935.646788684142	0
0	2492	62056.91266985242	1
0	2498	62132.908958825149	2
0	2500	62294.520230987794	1
0	2529	62783.605572998394	2
0	2531	62890.245379084053	1
0	2536	62920.4976770894	0
0	2628	64346.925859392351	1
0	2630	64409.077946095812	2
0	2639	64526.037523062653	1
0	2657	64776.447749906904	0
0	2681	65098.186226960639	1
0	2683	65259.764447798333	0
0	2876	68352.327960811658	1
0	2878	68352.691738095402	2
0	2880	68488.27336549348	3
0	2882	68516.251487114425	4
0	2904	68838.324647776886	3
0	2913	69052.979559342725	4
0	2915	69081.653746243727	3
0	2920	69197.407774479075	2
0	2929	69349.422888766121	3
0	2935	69434.482850148333	2
0	2940	69521.489650651916	1
0	2945	69610.069834015458	2
0	2947	69626.254421206339	3
0	2953	69800.170176041629	2
0	2962	70090.155194427979	1
0	2971	70126.967532896383	0
0	3017	70824.290464743529	1
0	3031	71085.487679926064	0
0	3451	81519.096787516528	1
0	3457	81636.0291834646	0
0	3755	91305.583809419873	1
0	3757	91309.165485289732	2
0	3767	91532.290812000144	1
0	3772	91602.192410339811	2
0	3774	91607.294299034284	3
0	3776	91617.338812292957	4
0	3778	91654.510139285586	5
0	3780	91819.449146971476	4
0	3789	92001.254366427906	3
0	3794	92082.95139798556	4
0	3796	92231.547731514988	3
0	3801	92289.955950631223	2
0	3810	92555.721339947007	1
0	3815	92666.530514778774	2
0	3817	92779.918495524928	3
0	3819	92825.144831523669	2
0	3824	92838.043304085668	3
0	3826	92871.070400414048	4
0	3828	92973.100843148743	5
0	3834	93031.952053360153	4
0	3843	93078.119966480849	3
0	3847	93169.334615752471	2
0	3851	93182.353530703507	1
0	3864	93660.937704012044	0
0	3873	93738.581881063067	1
0	3893	94021.47842293602	0
0	4194	101194.984864425251	1
0	4196	101438.784731268244	0
0	4325	104334.588355834567	1
0	4331	104400.326705252893	0
0	4336	104575.26530951609	1
0	4338	104794.929278704012	0
0	4402	106205.949234563601	1
0	4404	106266.170593240868	0
0	4602	111006.808744381105	1
0	4608	111022.293578261836	2
0	4610	111229.666323477636	3
0	4612	111281.858264590997	2
0	4625	111619.195156206198	1
0	4630	111648.954631555868	0
0	4642	111801.334632031062	1
0	4644	111838.448130908806	0
0	4773	114013.606979385614	1
0	4775	114233.404942035637	2
0	4797	114666.290916153591	1
0	4802	114667.210368668093	0
0	4826	114960.007702744365	1
0	4832	115180.539046275909	2
0	4834	115274.097374393941	1
0	4843	115399.491592602662	0
0	4848	115453.195795310263	1
0	4850	115479.19434465175	2
0	4852	115485.525429756742	1
0	4873	115739.895233889474	0
0	4878	115870.111597899849	1
0	4884	115959.262602625804	2
0	4886	116001.251821830875	1
0	4895	116079.13995510469	0
0	4904	116277.91324556976	1
0	4910	116445.641825111013	0
0	4927	116667.113857758536	1
0	4933	116723.747136532665	0
0	4938	116772.183438413182	1
0	4947	116870.467525193326	0
0	4957	117121.207806117697	1
0	4959	117125.745817837669	0
0	4964	117143.928698279368	1
0	4970	117295.698905952902	2
0	4972	117314.484808980823	1
0	4977	117368.879361251763	2
0	4979	117377.294396610314	3
0	4981	117406.98272610585	2
0	4994	117600.970517834715	3
0	4996	117610.69830087573	2
0	5000	117622.514050607933	1
0	5004	117631.677779996626	0
0	5008	117647.078299419477	1
0	5015	117851.86120816262	2
0	5026	117861.854077198456	3
0	5028	118039.669948326282	2
0	5050	118531.808007560075	1
0	5063	118781.489804198366	2
0	5069	118881.278437269284	1
0	5078	119035.235679620307	0
0	5600	131203.122493888402	1
0	5606	131460.243192100937	0
0	5611	131467.0210944172	1
0	5617	131592.620749715163	0
0	5626	131757.722483285637	1
0	5628	131774.391410725238	0
0	5640	132024.522230500014	1
0	5642	132298.150683005754	0
0	6788	159778.076383475964	1
0	6790	159848.897246550521	0
0	6795	159903.870315555356	1
0	6809	159959.096364760636	2
0	6811	160127.641173549624	1
0	6816	160139.646654314395	0
0	6821	160159.198593038899	1
0	6827	160264.349074481446	2
0	6829	160286.274355296191	3
0	6831	160289.745768781837	4
0	6833	160318.427605481177	3
0	6842	160464.22270656273	4
0	6844	160464.578348292954	5
0	6846	160479.12385468399	4
0	6851	160704.357388496517	5
0	6857	160788.719116343868	6
0	6859	160939.838064596711	7
0	6861	160992.257412643878	8
0	6863	161010.868980791172	7
0	6876	161111.933648699253	6
0	6881	161258.148285979683	5
0	6890	161400.715703637844	6
0	6892	161455.204660501083	5
0	6905	161478.385206534561	4
0	6914	161561.746682495572	5
0	6916	161657.525715748945	6
0	6918	161678.860257045656	5
0	6922	161704.099556863936	4
0	6936	161799.339074017758	3
0	6949	162240.840378140007	4
0	6963	162443.95895617354	5
0	6965	162573.08870166673	6
0	6979	162769.095204756292	5
0	6992	162877.252692784866	4
0	7000	163005.65045331264	5
0	7002	163071.907329010124	4
0	7016	163135.591872445342	3
0	7021	163147.841833192541	4
0	7023	163182.228665315836	3
0	7036	163334.54169976029	2
0	7053	163656.01957216981	1
0	7058	163771.191909012191	2
0	7060	163807.099066022536	1
0	7077	164130.303814737533	2
0	7079	164390.601046281214	1
0	7083	164418.468024675312	2
0	7090	164516.361106633243	1
0	7111	164654.729010150465	0
0	7310	168954.562059617293	1
0	7312	169103.898175274766	2
0	7314	169270.570177318804	1
0	7323	169445.026587163825	0
0	7586	175720.366014318907	1
0	7588	175856.090965811465	0
0	7604	176193.172709269035	1
0	7606	176236.232907708584	0
0	7675	177257.687080820595	1
0	7681	177501.10554015936	2
0	7691	177701.265762489091	1
0	7696	177712.117099735736	0
0	7709	177893.913076566418	1
0	7711	177936.381379678356	2
0	7717	178032.079918876614	3
0	7723	178103.965137393578	2
0	7728	178218.124113591504	1
0	7749	178451.911925158505	2
0	7751	178458.963723317038	3
0	7753	178460.43115713055	2
0	7758	178518.509732728015	3
0	7760	178524.966386757418	2
0	7764	178583.656583104133	1
0	7778	178734.538449147832	0
0	7954	182172.933006783504	1
0	7956	182327.054350032243	2
0	7962	182601.530599276265	1
0	7967	182605.381441599327	0
0	7972	182606.533244149975	1
0	7974	182681.670455405542	0
0	7983	182839.581939414127	1
0	7985	182890.382107122439	0
0	8017	183334.336410930046	1
0	8023	183439.538556071052	0
0	8178	186412.904038797649	1
0	8180	186414.512366120634	2
0	8187	186436.870094958882	1
0	8196	186619.177067911013	0
0	8227	187193.674012036509	1
0	8229	187234.313706216728	0
0	8358	189423.686664546623	1
0	8360	189473.507725389082	0
0	8377	189712.751463872472	1
0	8379	189774.241420752632	0
0	8384	189776.867322794186	1
0	8386	189884.587648969324	0
0	8558	193126.461997057492	1
0	8564	193305.22872337318	2
0	8574	193597.9966403054	3
0	8576	193599.961163077396	4
0	8578	193666.474431986776	5
0	8580	193707.728981345823	4
0	8585	193783.422221754255	3
0	8590	193793.034391614998	2
0	8595	193842.931471310226	3
0	8601	193952.560155879769	4
0	8603	193955.336856898345	3
0	8608	194071.733895077578	2
0	8613	194160.201231943801	3
0	8619	194515.855973542596	4
0	8625	194636.363207052766	5
0	8627	194652.966595644167	6
0	8629	194665.717660694591	5
0	8638	194831.606339003875	6
0	8652	195043.641709488394	5
0	8665	195276.532941952279	4
0	8670	195303.196854765917	3
0	8683	195342.25045928774	2
0	8688	195427.808011353304	3
0	8690	195490.194105703742	4
0	8696	195582.128615367317	5
0	8702	195657.273977495007	4
0	8711	195922.620344143785	3
0	8724	196021.986895895771	2
0	8741	196284.497819158639	1
0	8746	196331.064090643587	0
0	8880	198612.263088597792	1
0	8882	198673.27822747554	0
0	8899	198945.418276588218	1
0	8905	199024.750617372666	2
0	8911	199205.166199767526	1
0	8916	199358.756704813108	0
0	8921	199447.984714184369	1
0	8927	199730.63833236837	0
0	9110	204695.347699030389	1
0	9112	204725.659886445207	2
0	9118	204837.047390917079	1
0	9127	205045.00296721315	0
0	9535	213907.439890924666	1
0	9537	213947.356430809367	0
0	9541	213962.486203409002	1
0	9548	213993.184308869769	2
0	9558	214286.833312971456	1
0	9567	214540.75059817539	0
0	9792	218309.437002516973	1
0	9794	218374.5493489762	0
0	9799	218420.883937109092	1
0	9801	218503.770833327125	2
0	9803	218602.468147420188	3
0	9809	218645.181808810519	2
0	9818	218843.713597078743	1
0	9823	218905.869226295238	0
0	9839	219038.80143933435	1
0	9841	219049.344347940341	2
0	9847	219144.24532745033	1
0	9852	219213.405983800828	0
0	9861	219274.971474178177	1
0	9871	219808.326033651824	0
0	9876	219835.677442147528	1
0	9882	219897.347526179321	0
0	9975	221550.089624937037	1
0	9977	221576.377423146434	0
0	10077	223457.27183206843	1
0	10079	223600.68907547888	0
0	10211	226180.681250100541	1
0	10213	226371.235931647326	0
0	10226	226533.532750243767	1
0	10232	226648.874146989457	2
0	10238	226852.02774446511	3
0	10240	226948.325670367595	2
0	10249	227019.406499570646	3
0	10255	227143.201198953672	2
0	10260	227182.268759702648	1
0	10269	227302.814765760483	0
0	10274	227393.778620699177	1
0	10276	227399.039874050348	0
0	10285	227558.566887248604	1
0	10291	227755.754264968352	2
0	10297	227847.634621303065	1
0	10306	228059.179954539566	0
0	10311	228097.820154775413	1
0	10317	228233.232619168045	0
0	10326	228385.014978447719	1
0	10332	228434.896158954617	0
0	10702	237422.18635182475	1
0	10704	237482.153168833359	0
0	10713	237567.990117652503	1
0	10715	237575.38732369562	2
0	10717	237708.093035470651	1
0	10726	237768.954060557911	2
0	10728	237814.506832612957	1
0	10749	238030.810012398763	0
0	10754	238154.511176768501	1
0	10756	238331.210883399947	0
0	10776	238578.746136176591	1
0	10782	238727.847956801883	0
0	10846	239672.107842898006	1
0	10848	239674.833041867717	0
0	11067	243435.94793660927	1
0	11069	243541.571622498138	2
0	11075	243670.548988026751	3
0	11077	243988.574719185153	2
0	11086	244191.150119226553	1
0	11091	244228.927589597324	0
0	11330	250488.443748953986	1
0	11332	250510.219526501842	0
0	11348	251005.035144463557	1
0	11354	251220.726936223455	0
0	11656	257802.620602748144	1
0	11658	257803.935886041684	0
0	11663	257808.364132919889	1
0	11665	257873.791031273807	2
0	11667	257902.717112283585	3
0	11669	257926.898455584201	4
0	11675	258057.530938287195	3
0	11684	258122.672156819565	2
0	11689	258153.78506905744	1
0	11694	258233.852276399827	2
0	11696	258367.170514014305	1
0	11709	258724.692693033678	0
0	12123	265827.606130357285	1
0	12125	265885.282370879168	0
0	12536	275417.634089737099	1
0	12546	275577.590289492705	2
0	12548	275584.48248584594	3
0	12550	275740.996658679604	2
0	12559	276021.269072120493	1
0	12568	276157.283019282987	0
0	12573	276225.959671939389	1
0	12583	276337.590466199788	0
1	0	0	0
1	378	10271.602011570423	1
1	380	10654.588403970693	0
1	604	15052.062025158367	1
1	606	15114.183515532728	0
1	674	16327.029087745371	1
1	677	16373.439980453188	2
1	687	16535.986072336188	1
1	692	16582.298459105802	0
1	702	16735.924396906713	1
1	704	16806.5461956504	0
1	710	16807.729528874767	1
1	713	16856.629090175404	2
1	726	17078.539804269237	1
1	739	17228.033005677959	0
1	908	20795.079666440236	1
1	910	20797.654414972428	0
1	916	20868.546388611943	1
1	918	20940.640137222456	0
1	1565	40742.209893885422	1
1	1571	40931.122452788495	0
1	1864	48312.248196792423	1
1	1874	48499.607081066667	2
1	1877	48586.443383172773	3
1	1885	48718.688901060298	2
1	1905	49073.955225852912	3
1	1907	49109.091240311612	2
1	1912	49192.515404290207	1
1	1918	49231.636507105652	2
1	1920	49323.672605189134	1
1	1926	49358.713062340793	2
1	1939	49697.299827989809	1
1	1947	49860.149833136826	0
1	1953	49867.801980640835	1
1	1959	49911.160198342626	0
1	1965	50083.455068604366	1
1	1975	50308.20748057646	0
1	2400	60741.2680866965	1
1	2405	61006.526453068573	0
1	2414	61082.613299117857	1
1	2418	61237.365743519831	0
1	2425	61398.113427657727	1
1	2428	61408.589633220309	2
1	2433	61451.516016173424	1
1	2438	61512.653987568328	0
1	2444	61546.696250234978	1
1	2459	61627.436427348978	2
1	2461	61725.253803474582	1
1	2470	61792.939160057591	0
1	2550	63040.190066781899	1
1	2559	63264.836003701887	0
1	2593	63906.395273008647	1
1	2608	64028.977030316121	0
1	2705	65662.813645687656	1
1	2707	65672.86721023107	0
1	2746	66501.051956144474	1
1	2756	66615.253602852426	0
1	2762	66649.321944262	1
1	2767	66943.083113575995	0
1	2784	67222.221808092133	1
1	2786	67255.228347681216	0
1	3045	71163.703365631505	1
1	3051	71303.807068793981	0
1	3057	71600.156231819257	1
1	3060	71632.234164276991	2
1	3062	71765.510485166069	1
1	3071	71851.779738380565	0
1	3489	82396.823839033498	1
1	3491	82397.48391876976	0
1	3497	82435.880320445986	1
1	3499	82522.707487818292	0
1	3505	82601.423817971473	1
1	3507	82749.338721830824	0
1	3836	93031.952053360153	1
1	3838	93040.043948958066	0
1	3845	93078.119966480849	1
1	3849	93169.334615752471	2
1	3853	93182.353530703507	3
1	3855	93333.35921259249	2
1	3866	93660.937704012044	3
1	3868	93683.946166047794	2
1	3875	93795.065280581288	1
1	3884	93928.752869200356	0
1	3906	94259.796098610781	1
1	3917	94380.108296088842	0
1	3945	94972.614587821313	1
1	3947	94978.787745852418	0
1	4426	106507.235509680222	1
1	4429	106562.863078528132	2
1	4431	106684.774141201265	1
1	4440	106746.616575933753	0
1	4453	106882.883743405174	1
1	4455	106885.093432380028	0
1	4658	111987.329710979767	1
1	4668	112292.907073702706	2
1	4670	112433.854105426024	1
1	4678	112467.836096381221	0
1	4998	117610.69830087573	1
1	5002	117622.514050607933	2
1	5006	117631.677779996626	3
1	5010	117805.053939172428	2
1	5017	117853.256276366637	1
1	5030	118039.669948326282	2
1	5032	118213.533478923	1
1	5037	118218.409007653024	0
1	5080	119035.235679620307	1
1	5083	119133.194009171657	2
1	5086	119192.751441267683	3
1	5088	119194.72682804371	2
1	5094	119196.49895866961	3
1	5096	119202.567299823613	2
1	5101	119254.693117583029	1
1	5105	119343.907863716956	0
1	5126	119606.211478426457	1
1	5128	119685.806333111004	0
1	5133	119727.615702032053	1
1	5143	119908.95519307385	0
1	5148	119930.191243649822	1
1	5150	119961.496106976502	0
1	5652	132471.869114721234	1
1	5655	132494.842472280754	2
1	5657	132687.627969358163	1
1	5668	132902.060382729436	0
1	5734	133848.379520743494	1
1	5740	134013.311274433548	0
1	6894	161455.204660501083	1
1	6896	161455.72889803819	0
1	6920	161678.860257045656	1
1	6924	161704.099556863936	2
1	6926	161712.523423782246	1
1	6931	161731.71340939711	0
1	6938	161799.339074017758	1
1	6944	162185.514177046994	0
1	7062	163807.099066022536	1
1	7072	163967.189103187745	0
1	7081	164390.601046281214	1
1	7085	164474.350126265838	0
1	7092	164516.361106633243	1
1	7094	164540.615682090923	0
1	7135	165059.68444042867	1
1	7138	165106.004315392404	2
1	7153	165330.603626641735	1
1	7162	165463.829228255256	0
1	7352	169963.444909369369	1
1	7355	170005.096675986824	2
1	7364	170693.036160044648	1
1	7369	170694.427157016267	0
1	7608	176236.232907708584	1
1	7610	176283.981530662183	0
1	7650	176989.886026529811	1
1	7659	177041.677319623702	0
1	7762	178524.966386757418	1
1	7766	178583.656583104133	2
1	7768	178655.031423319303	1
1	7773	178724.546322163045	0
1	7780	178734.538449147832	1
1	7782	178853.7328320125	0
1	7800	179128.292829418671	1
1	7806	179232.637016478728	0
1	8322	188954.13250251899	1
1	8324	188973.778252925747	0
1	8443	190692.395452607604	1
1	8445	190778.049819006585	0
1	8764	196592.21204708195	1
1	8767	196679.466436791624	2
1	8778	196776.850506386928	3
1	8780	196903.082860906816	2
1	8791	197167.700431871436	1
1	8800	197250.49589495217	0
1	8961	200306.990896427568	1
1	8963	200385.448561858624	0
1	9522	213592.33300317149	1
1	9527	213690.825229486259	0
1	9539	213947.356430809367	1
1	9543	213981.615206372266	0
1	9577	214581.082494897792	1
1	9580	214654.12828999211	2
1	9586	214714.383449891947	3
1	9588	214719.731667569423	2
1	9594	214726.311586345899	3
1	9607	214950.249277459266	2
1	9616	214987.416499724597	1
1	9621	215052.094453653594	0
1	9854	219213.405983800828	1
1	9856	219232.019557252263	0
1	9884	219897.347526179321	1
1	9886	219907.070139562706	0
1	9896	219967.329967041435	1
1	9899	220037.223551671689	2
1	9901	220067.102219912993	1
1	9907	220209.950324296947	2
1	9917	220421.524581665933	3
1	9919	220449.695636112081	2
1	9924	220457.904473792499	1
1	9932	220541.626140689473	0
1	10134	224576.278087008869	1
1	10136	224952.800281949182	0
1	10338	228466.190588196124	1
1	10348	228591.053019141315	0
1	10405	229494.295133229779	1
1	10407	229683.529562383698	0
1	10784	238727.847956801883	1
1	10790	238822.393158020408	0
1	10796	238836.652878886367	1
1	10798	238880.546967983525	0
1	10826	239192.635227266434	1
1	10831	239279.34316473332	0
1	10854	239707.216951522163	1
1	10873	239870.430938552847	2
1	10879	239913.21463108313	1
1	10885	239925.960633884033	2
1	10887	239951.630288884323	1
1	10895	240048.541135227264	0
1	10904	240216.609735666319	1
1	10906	240248.341448435516	0
1	11123	244850.611509949526	1
1	11125	244910.730289628873	0
1	11131	244949.969270618776	1
1	11134	245106.746851053216	2
1	11136	245209.401376811915	1
1	11145	245406.680992607171	0
1	11413	252504.894416559403	1
1	11419	252590.200786848091	0
1	11741	259243.183579419669	1
1	11758	259435.259399137389	0
1	12017	264114.692087779724	1
1	12019	264176.733899155877	0
1	12146	266429.930106754866	1
1	12148	266443.592081104832	0
1	12230	267786.476776412634	1
1	12235	267911.716514530215	0
1	12605	276960.94241088477	1
1	12607	277043.428052173411	0
2	0	0	0
2	74	3142.517727458136	1
2	76	3171.291573295319	0
2	158	4702.31635394972	1
2	160	4787.903790300166	0
2	406	11086.77988681675	1
2	408	11269.283810835607	0
2	414	11272.823107418363	1
2	416	11380.407603775041	0
2	652	16066.89489699522	1
2	656	16072.384133319225	0
2	1604	41633.712975698317	1
2	1611	41721.914672364342	2
2	1613	41871.320555232905	1
2	1619	41921.915914264124	2
2	1624	41969.953634168551	1
2	1629	41980.447298841991	0
2	1638	42328.191879901895	1
2	1640	42379.212723592737	0
2	2573	63455.893708105447	1
2	2579	63636.544974954553	0
2	2637	64515.575455851606	1
2	2644	64545.203275552113	0
2	2792	67266.908662644527	1
2	2794	67305.364913935483	0
2	2803	67340.765517925192	1
2	2805	67361.823794571064	0
2	2815	67559.402832948482	1
2	2820	67658.539245509855	0
2	2977	70170.724227442397	1
2	2980	70255.118376154556	2
2	2982	70326.162393204519	1
2	2987	70382.423049759224	0
2	3080	71898.920172649382	1
2	3082	71927.109551949588	0
2	3096	72233.07944879697	1
2	3103	72299.476247594869	2
2	3105	72325.88937974846	1
2	3124	72567.932779905378	2
2	3132	72640.670707724049	1
2	3138	72657.316159488019	2
2	3140	72700.728082424908	1
2	3145	72783.032856861291	0
2	3547	83459.718741711655	1
2	3552	83821.870961815643	0
2	3899	94114.43503229357	1
2	3908	94303.252582038216	0
2	3988	95570.992546068016	1
2	3990	95601.956179579688	0
2	3996	95632.772814765943	1
2	3998	95663.612232450791	0
2	4492	107749.251772810508	1
2	4494	107787.937920244049	0
2	4945	116860.916638249538	1
2	4952	117095.146043119383	0
2	5103	119254.693117583029	1
2	5107	119343.907863716956	2
2	5112	119427.850228050156	1
2	5120	119547.451216946692	0
2	5130	119685.806333111004	1
2	5138	119904.489429057937	0
2	5145	119908.95519307385	1
2	5152	119961.496106976502	2
2	5154	120093.643517564387	1
2	5163	120117.23180308506	2
2	5166	120228.744604508756	3
2	5172	120343.288133372916	2
2	5177	120401.368362955154	1
2	5182	120432.841753396542	0
2	5192	120480.201091175329	1
2	5195	120555.97642641085	2
2	5200	120651.457476527791	1
2	5212	121064.485178501709	0
2	5240	121333.218140579165	1
2	5242	121344.369798447342	0
2	5546	129720.794732184405	1
2	5548	129747.878984729854	0
2	6781	159604.485000848212	1
2	6783	159621.400151550735	0
2	6998	162978.205142802593	1
2	7007	163097.227859524113	0
2	7104	164568.419015016685	1
2	7106	164569.664706671362	0
2	7117	164737.455317535472	1
2	7124	164962.064650961881	2
2	7140	165117.98310625342	1
2	7145	165197.00192875351	0
2	7155	165330.603626641735	1
2	7157	165410.41083966504	0
2	7164	165463.829228255256	1
2	7169	165500.838292906689	0
2	7209	166257.202251772094	1
2	7211	166306.494842343661	0
2	7403	171345.251505985426	1
2	7406	171358.736111158301	2
2	7408	171362.754260286965	1
2	7413	171403.480828394909	0
2	7827	179576.846121654086	1
2	7830	179618.683578369572	2
2	7832	179622.554693421151	1
2	7838	179698.731812419172	2
2	7840	179750.310197641923	1
2	7860	180071.680530546035	0
2	8176	186328.319659090372	1
2	8182	186418.629349564257	0
2	8392	189889.79378943321	1
2	8398	190076.400585986068	0
2	8455	190860.945564187395	1
2	8457	190895.948069745698	0
2	8474	191079.89699779941	1
2	8480	191415.901898138406	0
2	8489	191436.896503708651	1
2	8494	191735.455788786524	0
2	8658	195133.853043754163	1
2	8660	195275.821706047706	0
2	9021	201661.15461398685	1
2	9023	201763.409430140868	0
2	9652	215812.088924715234	1
2	9655	215862.804067259463	2
2	9657	215945.242207387448	1
2	9662	215969.935139982303	0
2	9938	220727.007076561188	1
2	9940	220788.033461313533	0
2	10165	225311.576761048949	1
2	10167	225419.026503756483	0
2	10179	225631.430214726763	1
2	10181	225779.397298201515	0
2	10453	230679.913890190911	1
2	10456	230718.343153839512	2
2	10458	230746.763797983064	1
2	10463	230750.613314894496	0
2	10833	239279.34316473332	1
2	10836	239517.269935887782	2
2	10838	239538.318293334873	1
2	10856	239718.907017056178	0
2	10908	240248.341448435516	1
2	10911	240293.713877932363	2
2	10913	240305.683283580423	1
2	10918	240340.387662484019	0
2	10983	241573.450290044079	1
2	10985	241664.954113113239	0
2	11460	253318.996982202497	1
2	11463	253349.998713262849	2
2	11469	253380.121252301081	1
2	11479	253541.127934446386	2
2	11485	253592.14599250718	1
2	11490	253807.583709307591	0
2	11560	255311.25755044131	1
2	11562	255399.547676792174	0
2	11571	255490.04079125726	1
2	11573	255554.121467800122	0
2	11791	260105.28670336814	1
2	11798	260211.333331198361	2
2	11800	260222.489884868103	1
2	11808	260274.230653687136	0
2	11814	260334.083050334549	1
2	11816	260389.327273464691	0
2	12188	267186.200532450194	1
2	12190	267274.757218208955	0
3	79	3171.291573295319	2765.8656370919
3	198	5388.331903906315	2201.1166012287
3	214	5669.465375312989	2341.5281515461
3	232	6365.647856309918	2531.8527412321
3	286	8110.953775313373	3424.5079735201
3	317	8837.024968269967	2707.6306015067
3	375	10229.996015465377	2713.4394652583
3	419	11380.407603775041	3026.9940452836
3	526	13890.096887935636	2417.3674287926
3	571	14595.013405286084	2569.4652162585
3	588	14695.591865113313	2134.2039156191
3	613	15217.820778515873	2705.8724699829
3	737	17177.400238120855	2855.5156648904
3	783	17948.162024010768	2457.5264277422
3	879	19979.129563132551	3029.8905526567
3	891	20217.303902454811	2196.8987377826
3	1018	23680.583137803943	3122.9970732238
3	1054	25125.203916184471	2656.3387996517
3	1158	27867.899332087352	2759.3574702367
3	1423	37180.830945337887	3178.5654444527
3	1488	39314.441755768149	2759.9258571491
3	1569	40900.475102245718	2650.3965599556
3	1597	41523.891661317441	2991.6324447747
3	1666	42743.332310900532	3201.8174022303
3	1827	47757.38895492818	2192.6866455283
3	1957	49908.954643546243	3031.1557892058
3	2015	50671.575989323356	2671.6824844546
3	2066	51785.971608734329	3136.6091208433
3	2088	52113.039953108534	3459.6588521313
3	2116	52874.323527847732	2422.5341451354
3	2120	52998.033189421183	4097.0081086135
3	2280	58022.051645079683	3092.0924183819
3	2468	61779.959977560202	3350.5458674859
3	2507	62365.347658323217	2730.8905020735
3	2511	62371.911459607757	2984.3501828425
3	2702	65632.092530630283	3499.1835718051
3	2834	67927.542730317764	2115.6784309619
3	2838	67929.88612686818	3520.8081807724
3	2911	68997.110858036665	2159.6011876222
3	3025	70990.459678769989	3211.1924830824
3	3108	72325.88937974846	2976.4664909823
3	3156	73033.720815512344	2477.9583814254
3	3171	73138.263506992667	2334.4332664507
3	3387	79158.2456964978	2668.3058879804
3	3425	80302.532554615613	2130.3636312112
3	3528	83118.708378367552	2487.7014168072
3	3587	84663.777363960139	2890.0902400046
3	3599	85014.854317000291	2003.4498053323
3	3611	85883.134574275594	2133.6852051783
3	3668	88709.930767913056	2735.552437501
3	3710	89844.920567002082	2047.0173094142
3	3761	91477.349444464531	2304.1050491016
3	3927	94526.109367730064	3343.7274128851
3	3931	94582.922914116082	3273.7574288263
3	3954	95074.2220550927	3466.9277560584
3	3962	95121.617666474007	3816.0338570541
3	4057	96855.534378448462	2449.5291963592
3	4164	100477.839835801938	1997.7001388557
3	4207	101586.002998838626	2158.3770411741
3	4308	104024.215375358227	2224.9492872041
3	4323	104245.017926129169	3346.1677674484
3	4438	106710.958954521386	3174.3353133369
3	4520	108189.092537585161	1983.1433030216
3	4587	110596.079920233361	2645.8082060795
3	4689	112752.782246181767	2542.0485454984
3	4764	113893.315168928339	3216.3867115136
3	4787	114423.161391347099	3193.4950678695
3	4908	116305.983853192046	2936.2142420467
3	4955	117095.146043119383	1641.9502478091
3	4968	117289.160900558709	3055.7559585231
3	4988	117501.801418480825	3488.1944390952
3	5044	118332.301690117817	2373.039087492
3	5057	118715.237601860788	2437.324356291
3	5185	120432.841753396542	3137.1428474436
3	5226	121087.463216842513	3718.5838555907
3	5260	121567.863757725664	2786.3739535273
3	5284	122174.65490757987	4322.7936994172
3	5555	129773.805560673183	3083.2120261621
3	5615	131489.828636715399	3356.7095900886
3	5769	134309.710692475592	3707.2045479342
3	5850	135938.196703000981	1916.703104591
3	5978	138865.848079987699	3169.5391516294
3	6124	144614.983064141546	3342.7089498751
3	6472	152470.120701050515	2564.5627479628
3	6636	156804.478299471525	3177.5634665508
3	6686	157715.619429786913	2599.3092017714
3	6767	159259.214100398898	3127.8018714767
3	6807	159950.42798966053	3649.0053659398
3	6942	161871.912985657375	2335.8251352143
3	6973	162671.467183325718	2407.1181088443
3	7066	163863.08724661793	3573.3414778361
3	7148	165197.00192875351	4408.2828124096
3	7172	165500.838292906689	4100.1225892688
3	7250	167022.078808258578	4016.4283549459
3	7456	172409.034275379308	3305.1361001045
3	7478	173140.95215551666	2325.1314677764
3	7497	173570.172177421546	2307.9027270712
3	7577	175595.482869357996	2131.0248264112
3	7602	176154.927678798692	3351.8973710854
3	7628	176733.605553578142	2144.9283053633
3	7673	177231.03700277653	2529.1034583002
3	7679	177381.115450614258	2997.1986630745
3	7743	178365.627911058743	2883.3264707715
3	7747	178398.129312210088	2677.7632978912
3	7871	180191.504120122443	2933.8170393018
3	7945	181953.760237251967	3501.8483120935
3	8091	184815.139466323013	2208.606222173
3	8143	185561.352267377033	3665.9840280376
3	8194	186466.383283498827	2789.9921567179
3	8309	188677.343520663073	2676.1528756935
3	8319	188948.157728409584	2859.218216138
3	8501	191752.525714466372	2870.3279875989
3	8546	192559.893518651837	2188.0887889039
3	8572	193579.687211451433	2623.3932746015
3	8623	194593.726346249873	3162.9998629354
3	8677	195337.022767623345	2347.3526296858
3	8818	197503.242202802054	2866.8789957493
3	8826	197701.024764885585	3185.168791343