version 2
run Iteration-61-20200521-09:54:27-54592
attr configname Iteration
attr datetime 20200521-09:54:27
attr experiment Iteration
attr inifile omnetpp.ini
attr iterationvars "$i=6, $j=7, $0=15-(6+7)"
attr iterationvarsf i=6,j=7,15-(6+7)-
attr measurement "$i=6, $j=7, $0=15-(6+7)"
attr network Network
attr processid 54592
attr repetition 0
attr replication #0
attr resultdir results
attr runnumber 61
attr seedset 61
itervar i 6
itervar j 7
param **.resourcePool.amount 6
param **.resourcePool1.amount 7
param **.resourcePool2.amount 15-(6+7)
param **.source.interArrivalTime exponential(6min)
param **.delay.delay uniform(4min,28min)
param **.delay1.delay uniform(10min,28min)
param **.delay2.delay uniform(4min,16min)
param **.allocate.resourceModuleName "\"Network.resourcePool\""
param **.allocate1.resourceModuleName "\"Network.resourcePool1\""
param **.allocate2.resourceModuleName "\"Network.resourcePool2\""
param **.deallocate.resourceModuleName "\"Network.resourcePool\""
param **.deallocate1.resourceModuleName "\"Network.resourcePool1\""
param **.deallocate2.resourceModuleName "\"Network.resourcePool2\""
param **.router.randomGateIndex "uniform(0, 1) > 0.2 ? 0 : 1"

vector 0 Network.allocate queueLength:vector ETV
attr interpolationmode sample-hold
attr title "queue length, vector"
vector 1 Network.allocate1 queueLength:vector ETV
attr interpolationmode sample-hold
attr title "queue length, vector"
vector 2 Network.allocate2 queueLength:vector ETV
attr interpolationmode sample-hold
attr title "queue length, vector"
vector 3 Network.sinkStat lifeTime:vector ETV
attr interpolationmode none
attr title "lifetime of arrived jobs, vector"
attr unit s
vector 4 Network.sink lifeTime:vector ETV
attr interpolationmode none
attr title "lifetime of arrived jobs, vector"
attr unit s
0	0	0	0
0	1073	30981.974308870253	1
0	1075	31020.437888646048	0
0	1627	43318.123115793141	1
0	1629	43477.07270051038	0
0	1634	43531.847718320122	1
0	1640	43767.477297731167	0
0	2143	54963.038325067467	1
0	2145	54977.418542111026	0
0	2971	72353.001553873214	1
0	2973	72378.487643645639	0
0	2978	72425.155034630662	1
0	2986	72519.381787979798	0
0	3585	87391.945257808706	1
0	3587	87418.683981747001	0
0	3658	88518.365044907624	1
0	3660	88538.353073507003	0
0	3665	88548.978779578722	1
0	3667	88577.925415547233	0
0	3672	88586.740519102755	1
0	3690	89118.051127769714	0
0	4286	105285.270661421509	1
0	4288	105360.495587460668	0
0	4908	118440.346446570551	1
0	4913	118583.555432213314	2
0	4915	118596.718614968847	1
0	4920	118604.816544660308	2
0	4922	118614.142059182905	1
0	4935	118704.300403977722	2
0	4937	118907.513604525725	1
0	4942	119010.52732814754	0
0	5079	121924.215875055772	1
0	5086	121941.883518623977	0
0	5091	122185.480878900406	1
0	5093	122261.798741300633	0
0	5390	129712.640861478939	1
0	5392	129716.459511033453	0
0	5963	145125.84429243869	1
0	5975	145214.847960516123	2
0	5977	145224.852866018881	1
0	5982	145347.232290676758	0
0	7761	191053.394040156563	1
0	7767	191147.908228422044	2
0	7777	191330.803122172392	1
0	7782	191361.273395407122	2
0	7784	191396.307543100093	3
0	7786	191525.140726362418	2
0	7807	191807.10665499466	3
0	7809	191822.71917670045	4
0	7811	191876.906998923782	3
0	7816	191906.267180355526	2
0	7821	191917.107778870935	3
0	7823	191932.99966511554	2
0	7828	191978.237064551611	1
0	7833	192001.962698783172	0
0	8708	210492.302764878718	1
0	8710	210645.208571311999	0
0	9028	218458.323163238885	1
0	9038	218633.342156984359	0
0	9077	219221.54035142822	1
0	9079	219310.672235499889	0
0	9084	219324.200023183022	1
0	9089	219361.911935878432	0
0	9094	219420.901573104394	1
0	9101	219556.8075108707	2
0	9111	219738.272699052197	3
0	9113	219775.525088034241	4
0	9115	219828.668561929706	3
0	9120	219831.643295526952	2
0	9136	219985.058170609474	3
0	9138	220135.146819686032	2
0	9143	220310.38480171747	1
0	9159	220481.487678561181	0
0	9526	228465.951654585889	1
0	9528	228569.597865901907	0
0	10657	260427.336429862046	1
0	10663	260677.029008108986	0
0	10796	263076.531153779276	1
0	10811	263392.036355256786	2
0	10813	263446.838646447557	1
0	10818	263516.281782484265	2
0	10823	263787.505660617576	1
0	10828	263873.192629927895	2
0	10830	263915.994906639988	1
0	10835	263972.68032763735	0
0	10900	265092.124090613765	1
0	10905	265169.659112659288	2
0	10915	265312.680373193548	1
0	10920	265413.34817870653	0
0	10933	265522.949534287919	1
0	10935	265532.138235202288	0
1	0	0	0
1	427	12805.236968131261	1
1	434	12908.955235341185	0
1	3708	89422.828879500774	1
1	3715	89557.889111494314	0
1	3720	89586.345981195025	1
1	3734	89938.730355028485	0
1	7835	192001.962698783172	1
1	7841	192172.684396528765	0
1	7889	192939.975315567617	1
1	7891	192972.620599374909	0
1	7899	193185.511360714472	1
1	7901	193193.464022516399	0
1	7909	193269.486106022064	1
1	7916	193314.007892893676	0
1	7921	193424.274411812038	1
1	7928	193470.633452801294	0
1	7946	193755.658690133489	1
1	7951	194071.965915999439	0
1	8763	212073.331129570897	1
1	8765	212096.815410611201	0
1	8798	212724.57481810693	1
1	8805	212882.007303070863	2
1	8807	212887.309739492073	1
1	8812	212929.159054199001	0
1	9203	221260.434244658619	1
1	9213	221503.424743226919	0
1	10713	261604.049798350827	1
1	10715	261604.864881208918	0
1	10720	261652.221093459833	1
1	10732	262012.244482915729	0
2	0	0	0
2	111	5272.84641664384	1
2	114	5332.087453939833	2
2	116	5401.328825375018	1
2	122	5477.519471455003	2
2	125	5541.473219046764	3
2	127	5567.090719544265	2
2	146	6235.144394470332	1
2	152	6294.707632350156	2
2	158	6428.173835367832	1
2	163	6532.09328493285	0
2	169	6613.370375031921	1
2	178	6872.526945231436	0
2	213	7978.742331727966	1
2	216	8031.926928086437	2
2	218	8147.285134160052	1
2	226	8291.852034422488	0
2	294	10001.212284455448	1
2	308	10420.948998848044	0
2	314	10421.802010616115	1
2	323	10613.75293440825	2
2	325	10723.594782500505	1
2	340	10866.086469206274	2
2	346	10960.337879745524	3
2	348	11009.924673376673	2
2	360	11034.293460248947	1
2	366	11125.36937722035	2
2	369	11504.587053068094	3
2	376	11723.645714868623	4
2	379	11743.612486159554	5
2	385	11875.39150593707	4
2	393	11947.135443905437	3
2	421	12594.783567743445	2
2	429	12831.021416316718	1
2	436	12908.955235341185	2
2	438	13081.557570541347	1
2	447	13163.365119708902	2
2	450	13254.911713127298	3
2	453	13289.63152327186	4
2	456	13609.132610233368	5
2	459	13647.085407752864	6
2	461	13662.840100078821	5
2	467	13715.617782625028	6
2	469	13761.768498210306	5
2	488	14366.309847477445	6
2	494	14484.280960260868	5
2	505	14530.414545008982	4
2	517	14737.251220493555	3
2	530	14824.439223817703	4
2	536	14998.062384532834	3
2	541	15234.86922267729	2
2	557	15681.377255836571	1
2	563	15920.483256633672	2
2	577	16014.450772563348	3
2	580	16089.122153477817	4
2	582	16129.061356260419	3
2	588	16310.872684182233	4
2	590	16571.641120309079	3
2	596	16639.991623249801	4
2	602	16758.34258519116	5
2	607	16860.269331367755	4
2	612	17020.184668562353	3
2	618	17045.863565038495	4
2	629	17152.223037905049	5
2	631	17264.60218037858	4
2	636	17632.467434200436	3
2	642	17872.236610985366	4
2	648	18003.005276484483	3
2	653	18191.017381082267	2
2	659	18405.587781129057	3
2	661	18443.580079655141	2
2	670	18762.027808584104	3
2	672	18771.728954793953	2
2	677	18901.863370629937	1
2	682	19077.161625934832	0
2	750	21850.517583308247	1
2	752	22078.9068723728	0
2	854	24819.095445125466	1
2	856	24853.408046390388	0
2	870	25156.937243469785	1
2	878	25398.546521894161	0
2	887	25496.084453827442	1
2	892	25658.025830506806	0
2	955	27672.320608055405	1
2	957	27809.11490662042	0
2	963	27894.865278561194	1
2	973	28123.423019796796	0
2	979	28125.504136611845	1
2	981	28163.670464214821	0
2	1020	29307.341815175184	1
2	1023	29466.057398307891	2
2	1032	29805.239655757595	1
2	1037	30067.710674387222	0
2	1125	32341.802992218655	1
2	1136	32570.726497379271	2
2	1139	32590.102316029557	3
2	1142	32683.035588755075	4
2	1151	32862.608956435571	3
2	1156	32907.218420551899	2
2	1162	33141.089621863583	3
2	1164	33180.038950471017	2
2	1170	33284.351567480263	3
2	1172	33413.550973852972	2
2	1190	33730.759263375429	3
2	1192	33824.627517377767	2
2	1198	33862.815884922921	3
2	1203	34249.682434128473	2
2	1215	34674.089647291054	3
2	1217	34747.907992193351	2
2	1222	34749.299763077679	1
2	1227	35029.162845035891	0
2	1246	35191.328163724532	1
2	1249	35234.45396581777	2
2	1262	35553.42243425722	1
2	1267	35609.813401168021	0
2	1281	36054.668490956201	1
2	1287	36301.564026122789	0
2	1293	36337.283343189903	1
2	1295	36524.23870067093	0
2	1301	36578.06614712472	1
2	1304	36621.701524364217	2
2	1313	36998.232211472343	1
2	1319	37073.822651554659	2
2	1321	37115.920066283824	1
2	1338	37431.087374092887	0
2	1352	37691.836757546052	1
2	1358	37857.283193098257	0
2	1399	38531.228885847897	1
2	1409	38773.862364107619	0
2	1415	38835.759765440596	1
2	1420	39057.532242132898	0
2	1426	39168.60420654777	1
2	1429	39175.130010525361	2
2	1432	39233.159087302646	3
2	1437	39337.732014699455	2
2	1443	39397.1134413143	3
2	1446	39467.251965979608	4
2	1453	39590.927680509081	5
2	1459	39695.979756099979	4
2	1471	39888.214094123419	3
2	1476	40001.235769411425	2
2	1485	40300.109983541785	3
2	1491	40318.003329953055	2
2	1500	40482.644897664013	3
2	1503	40515.31909272353	4
2	1505	40561.525919033762	3
2	1522	41078.256688701536	2
2	1527	41089.840918147813	1
2	1532	41405.764566885184	0
2	1566	42050.759185946741	1
2	1569	42112.981987486336	2
2	1575	42415.708868471889	1
2	1583	42484.502968824991	0
2	1601	42954.095817436017	1
2	1603	42964.478800842522	0
2	1662	44158.570596464193	1
2	1665	44380.459605517444	2
2	1671	44442.661671953538	1
2	1676	44461.859414092162	0
2	1685	44660.453337360597	1
2	1691	44803.385722598323	0
2	1705	44981.180110561309	1
2	1712	45117.174940814768	2
2	1714	45173.266862350413	1
2	1719	45279.060817079881	0
2	1750	45918.839034862058	1
2	1755	46402.351964131703	0
2	1761	46432.307798136135	1
2	1764	46462.812140420503	2
2	1769	46679.849030695659	1
2	1794	47013.35777297314	0
2	1855	48512.597891570244	1
2	1857	48650.23589345229	0
2	1888	49385.265217033532	1
2	1894	49590.073265438649	0
2	1903	49879.872370361831	1
2	1905	49955.783128030475	0
2	1949	50771.722328935545	1
2	1951	51158.434690615077	0
2	1957	51298.888475029849	1
2	1959	51329.351528755233	0
2	1978	51464.029608610279	1
2	1981	51475.703978635937	2
2	1983	51521.635919535447	1
2	1999	52064.176412416536	0
2	2042	53115.859792104681	1
2	2056	53421.831008541788	2
2	2063	53536.707672292492	3
2	2065	53574.921122518408	2
2	2070	53672.587269892652	1
2	2087	53994.840418872463	0
2	2093	54049.742567927468	1
2	2099	54253.560736266632	0
2	2112	54426.034462727711	1
2	2115	54452.642356125809	2
2	2117	54531.350354602296	1
2	2126	54568.055901596141	2
2	2131	54730.29863857575	1
2	2158	55126.18949645545	0
2	2164	55214.788624327168	1
2	2177	55435.807513584423	0
2	2199	55934.262321255562	1
2	2206	56026.339091349733	2
2	2211	56153.517314169249	1
2	2220	56549.714813414573	0
2	2226	56570.459651730688	1
2	2229	56765.732739263129	2
2	2239	56998.044071716609	3
2	2242	57039.997239812365	4
2	2244	57105.881202399424	3
2	2249	57135.741201821327	2
2	2270	57771.334668486923	1
2	2276	57834.983310698465	2
2	2278	57965.805095482311	1
2	2287	58030.112617160738	0
2	2296	58125.000398361789	1
2	2301	58357.879725090853	0
2	2356	59363.565361245737	1
2	2358	59386.803606743688	0
2	2380	59744.065858354067	1
2	2383	59806.693560298573	2
2	2385	60046.707743160171	1
2	2395	60138.37084866284	2
2	2397	60176.668415772492	1
2	2403	60223.267105865362	2
2	2406	60269.402045286022	3
2	2408	60663.678571950389	2
2	2413	60754.351623221064	1
2	2425	61133.875644158757	2
2	2427	61219.60393808384	1
2	2452	61641.953093833054	0
2	2458	61785.758138532271	1
2	2460	62056.935214824719	0
2	2485	62417.140380544541	1
2	2487	62421.319659328784	0
2	2535	63645.523484733615	1
2	2541	63707.210034806997	2
2	2543	63727.136584009275	1
2	2548	63874.696619599898	0
2	2562	63957.366211617943	1
2	2565	63963.554633500957	2
2	2568	64041.375417291281	3
2	2570	64153.44874869217	2
2	2587	64469.683117993016	1
2	2595	64648.550708565161	0
2	2605	64916.193962157252	1
2	2608	64929.599320357924	2
2	2614	65190.93705439125	1
2	2620	65205.832094902091	2
2	2622	65311.142494451095	1
2	2628	65508.731233318462	2
2	2631	65537.349326556406	3
2	2636	65813.308597701833	2
2	2642	65819.203077846761	3
2	2647	66025.157026737769	2
2	2658	66370.331646870662	1
2	2664	66451.257645983678	2
2	2680	66719.50573708047	1
2	2688	66847.191608022739	0
2	2743	67971.601613755144	1
2	2748	68128.701210100947	0
2	2802	68905.99418518054	1
2	2805	68994.358536338456	2
2	2826	69121.187503545865	3
2	2828	69222.528545373242	2
2	2833	69398.388738247872	1
2	2839	69605.902778406561	2
2	2845	69812.3014032665	1
2	2861	70116.375605489433	0
2	2867	70331.526432985803	1
2	2869	70384.322562466681	0
2	2878	70453.000270466352	1
2	2885	70496.820207150403	2
2	2888	70543.921937362755	3
2	2891	70562.387491157735	4
2	2893	70595.515188054304	3
2	2899	70631.022854695238	4
2	2905	70997.743406311014	5
2	2914	71207.544527520548	4
2	2920	71260.082850504959	5
2	2925	71333.608200109869	4
2	2941	71645.870815261572	3
2	2952	71973.776068707119	2
2	2960	72137.511829815179	1
2	2969	72285.974221695581	2
2	2981	72449.40851710033	3
2	2984	72509.989939170022	4
2	2991	72646.600351334672	3
2	2996	72686.366274233282	2
2	3006	72991.051077814335	3
2	3016	73205.352090632366	4
2	3021	73432.503348707527	3
2	3030	73516.620322895359	2
2	3050	74089.837915848315	1
2	3056	74142.145131861952	2
2	3059	74326.302867789949	3
2	3065	74363.206375931512	2
2	3078	74560.355268390412	3
2	3080	74698.4290898287	2
2	3086	74907.759939709021	3
2	3089	75113.030128020092	4
2	3091	75222.13145444275	3
2	3097	75228.475317242999	4
2	3100	75240.163032787046	5
2	3103	75327.91328618099	6
2	3105	75553.652405075103	5
2	3124	76155.610388108651	4
2	3132	76344.756730447829	3
2	3140	76592.227441911708	2
2	3149	76691.042196562664	3
2	3160	77042.522098849637	4
2	3168	77176.824846237272	3
2	3177	77481.037064959418	2
2	3183	77558.71343299991	3
2	3188	77725.176100365192	2
2	3202	78118.831600314099	3
2	3205	78124.536900390464	4
2	3207	78275.152284783434	3
2	3215	78350.51550912422	2
2	3231	78652.11176289928	1
2	3247	78911.813988630783	0
2	3253	78997.471315951826	1
2	3256	79053.348329583961	2
2	3259	79106.794675125187	3
2	3266	79304.814429795908	4
2	3269	79484.093854912609	5
2	3275	79597.129180047036	4
2	3281	79664.085993994592	5
2	3283	79807.150787600439	4
2	3289	79917.341757338363	5
2	3300	80167.273482333244	4
2	3308	80597.185516848535	3
2	3317	80640.77440021665	2
2	3323	80676.675228761465	3
2	3342	81246.406808645587	2
2	3347	81391.602147898943	1
2	3353	81475.784053457584	2
2	3359	81654.764671965808	1
2	3364	81727.536155880551	0
2	3370	81882.328182409939	1
2	3377	82154.910857426559	2
2	3379	82187.672120134652	1
2	3394	82506.000200622837	0
2	3498	84789.371399422389	1
2	3500	84911.835901670437	0
2	3517	85285.463948612069	1
2	3519	85291.924847138151	0
2	3656	88510.436072569539	1
2	3675	88965.433002943739	2
2	3677	88996.636002914948	1
2	3682	89009.609960904911	0
2	3688	89086.710379201756	1
2	3710	89429.360336096925	0
2	3717	89557.889111494314	1
2	3725	89898.455648767397	0
2	3743	89989.223453639383	1
2	3746	90034.746727425533	2
2	3752	90142.87896123309	3
2	3755	90152.777419587053	4
2	3761	90290.875892892902	3
2	3767	90340.040505273929	4
2	3780	90779.390944680766	3
2	3785	90807.511997681533	2
2	3791	90885.134151992988	3
2	3794	90961.882788647627	4
2	3804	91324.530702198792	5
2	3806	91346.796084635382	4
2	3811	91387.224735757903	3
2	3820	91451.439655350943	4
2	3836	92009.631733985971	5
2	3842	92067.890829306518	4
2	3847	92180.823540995465	3
2	3853	92392.414013020595	4
2	3859	92592.876065869307	3
2	3865	92674.691377407415	4
2	3868	92750.687190803807	5
2	3873	92850.09317600225	4
2	3883	93065.283935503677	5
2	3893	93185.142008711075	4
2	3898	93358.39614386727	3
2	3903	93579.452551391398	2
2	3909	93819.176144671917	3
2	3912	94103.967981852426	4
2	3924	94271.29251935576	3
2	3929	94454.78538322491	2
2	3935	94492.892495144493	3
2	3937	94790.879763840334	2
2	3953	95387.768795371478	1
2	3964	95539.456656771348	0
2	3974	95686.821314318533	1
2	3979	95951.353340568588	0
2	3993	96263.207890278447	1
2	3996	96301.584909198886	2
2	4002	96615.381141035453	1
2	4018	97005.540266549782	0
2	4068	97993.92078888876	1
2	4070	98190.708126727652	0
2	4113	99009.542593403913	1
2	4118	99192.730930555062	0
2	4124	99513.026500328826	1
2	4138	99750.449138502972	0
2	4177	100968.576916090661	1
2	4179	101124.959865990293	0
2	4185	101289.744109878236	1
2	4191	101657.160267601919	0
2	4321	106154.091914660509	1
2	4327	106219.774187018238	0
2	4333	106235.054200108529	1
2	4341	106271.136695545052	0
2	4351	106399.46489128268	1
2	4358	106604.430558791799	2
2	4364	106758.889373758779	3
2	4367	106814.47316428473	4
2	4370	106855.399695044666	5
2	4372	106930.932712030672	4
2	4380	107043.036131791656	3
2	4395	107210.317061373108	2
2	4400	107453.81939894322	1
2	4417	107719.608926006668	0
2	4423	107815.255319253574	1
2	4425	107894.828777879362	0
2	4431	107929.602137584211	1
2	4450	108453.477132038289	0
2	4456	108615.023019041407	1
2	4462	108699.244651573643	2
2	4465	108794.887333760205	3
2	4467	108795.007859811072	2
2	4472	108998.198172335589	1
2	4484	109090.954304476134	2
2	4490	109276.120873063688	1
2	4504	109377.604336954429	2
2	4514	109873.829288610333	1
2	4520	109982.094344294338	2
2	4525	110094.100410740708	1
2	4531	110094.310865125536	2
2	4534	110167.848809181836	3
2	4536	110214.958018564695	2
2	4545	110379.735933223382	3
2	4555	110698.416875539038	4
2	4558	110701.880843028821	5
2	4560	110839.884752032423	4
2	4565	110958.656542997693	3
2	4578	111228.547398702566	4
2	4590	111587.733155150974	3
2	4599	111769.652945481127	2
2	4609	111966.695577316844	3
2	4616	111983.952886727396	4
2	4628	112462.884525653982	3
2	4634	112513.81891437987	4
2	4639	112578.780493017172	3
2	4648	113143.857987451783	4
2	4650	113267.863512576634	3
2	4662	113348.507220349455	4
2	4665	113469.85526886105	5
2	4667	113478.401259396111	4
2	4680	113590.264646128828	3
2	4696	114083.88913615409	2
2	4709	114202.513478397252	3
2	4711	114233.463720974589	2
2	4727	114620.007850585999	3
2	4730	114636.285376817696	4
2	4732	114728.577840809787	3
2	4737	114778.691494434957	2
2	4743	114957.246907339417	3
2	4748	115055.659168248142	2
2	4754	115151.637136360855	3
2	4769	115459.189044897942	4
2	4771	115489.430493458991	3
2	4787	115780.33629541945	2
2	4792	116036.078458909954	1
2	4798	116111.661196791494	2
2	4801	116162.927538815869	3
2	4803	116214.540595885252	2
2	4809	116399.671803260516	3
2	4815	116446.483511791642	2
2	4824	116766.856359385639	3
2	4827	116847.774463351468	4
2	4829	116927.840288288777	3
2	4843	117193.994053255652	2
2	4848	117230.458455027159	1
2	4864	117631.777315593626	2
2	4870	117737.001474637424	1
2	4895	118178.006243181493	0
2	4911	118464.450613178302	1
2	4928	118633.055782957856	2
2	4930	118686.490972113874	1
2	4948	119052.902370800102	2
2	4954	119162.318968267258	1
2	4960	119236.415868970941	2
2	4966	119271.926506070313	1
2	4978	119612.910030965771	0
2	4988	119705.318670337163	1
2	4991	119764.012534877534	2
2	4993	119768.220489585665	1
2	4999	119870.016600659274	2
2	5001	120255.680299198148	1
2	5007	120260.95678248162	2
2	5009	120275.352962573137	1
2	5015	120336.16300249603	2
2	5029	120758.615290747849	1
2	5035	120914.155577749171	2
2	5037	121084.168116913255	1
2	5045	121304.308441208569	0
2	5051	121305.987778282499	1
2	5054	121398.514508797775	2
2	5057	121508.880740076552	3
2	5065	121747.16531561416	2
2	5081	121927.866518182574	1
2	5099	122299.851815862766	2
2	5109	122696.428154145446	1
2	5114	122765.005052054195	0
2	5150	123379.086525410261	1
2	5153	123431.428024689619	2
2	5156	123478.315017272576	3
2	5162	123561.279560231682	2
2	5183	123819.026210741182	3
2	5192	124120.468836664265	2
2	5197	124205.307843011882	1
2	5207	124261.36701407499	2
2	5210	124289.792929415449	3
2	5217	124419.44925989859	4
2	5219	124472.240034877365	3
2	5229	124495.196148766819	4
2	5235	124777.782031239089	3
2	5247	125078.586204438513	2
2	5252	125239.647036844012	1
2	5262	125273.888042848098	2
2	5267	125391.4218777372	1
2	5273	125392.45800058631	2
2	5276	125427.004516971614	3
2	5279	125726.852234795933	4
2	5282	125835.256390234731	5
2	5288	125973.124240168449	4
2	5298	126065.526342313377	5
2	5301	126134.782048056182	6
2	5303	126304.002117342359	5
2	5309	126442.069251015989	6
2	5311	126680.281795633104	5
2	5316	126777.762658572799	4
2	5321	126920.516865101721	3
2	5329	127280.52044311077	2
2	5334	127408.235102367666	1
2	5340	127464.392391663993	2
2	5342	127615.332642416513	1
2	5351	127894.778804496941	0
2	5448	131110.027472136643	1
2	5451	131210.474776802198	2
2	5454	131256.923016215407	3
2	5459	131418.37128848434	2
2	5472	131831.70207459342	1
2	5481	131948.344266497724	2
2	5483	132050.462442120915	1
2	5499	132560.15267624961	2
2	5501	132658.681424147005	1
2	5506	132695.977184182411	0
2	5516	132824.570834942803	1
2	5525	133104.359570889735	2
2	5535	133435.48561021313	3
2	5540	133572.641902776813	2
2	5545	133586.217759958024	1
2	5555	133844.573848978431	2
2	5574	134180.529434176649	1
2	5580	134346.656664909483	2
2	5585	134451.083158372348	1
2	5603	134916.465010828848	2
2	5605	134938.541684801246	1
2	5615	135157.650331412032	2
2	5617	135164.162557596719	1
2	5627	135439.535515622312	2
2	5629	135480.582859496142	1
2	5635	135705.30959898183	2
2	5638	135789.071514509486	3
2	5640	135859.526446702446	2
2	5645	136101.244824665046	1
2	5651	136180.307011000669	2
2	5657	136194.664320741117	3
2	5660	136223.970837588681	4
2	5672	136750.206635108705	3
2	5684	136937.585130786902	2
2	5692	137408.068853808946	1
2	5698	137654.909016058805	2
2	5700	137674.989070313539	1
2	5718	137808.929809344698	2
2	5723	138107.822065173096	1
2	5737	138492.635679467138	0
2	5743	138597.111290050257	1
2	5746	138619.001928434865	2
2	5756	138928.550290750719	1
2	5769	139202.861343918856	0
2	5778	139393.323270489454	1
2	5780	139612.540924808498	0
2	5794	139920.825901360584	1
2	5797	139972.517094872258	2
2	5800	140076.030950658886	3
2	5802	140248.403786429748	2
2	5807	140250.49940463018	1
2	5812	140501.249745300527	0
2	5884	143079.199030976022	1
2	5889	143195.341732873826	0
2	5939	144506.817773296494	1
2	5949	144626.273558251485	2
2	5965	145128.641044576148	1
2	5970	145165.395067959937	0
2	5995	145558.981929174617	1
2	5998	145678.388965713259	2
2	6001	145696.594453863701	3
2	6003	145734.982036300431	2
2	6019	146102.310390651139	1
2	6033	146280.189443542648	2
2	6036	146281.323372647856	3
2	6038	146469.900624718945	2
2	6046	146505.56328089154	1
2	6066	146586.296379481761	2
2	6073	146790.016506838575	3
2	6079	147039.83442782602	2
2	6085	147211.550344571083	3
2	6087	147401.741925947796	2
2	6096	147470.697143097167	3
2	6110	147741.441157334657	4
2	6112	147768.419165398839	3
2	6118	147770.059513803781	4
2	6121	147831.879447943494	5
2	6126	148041.219548072579	4
2	6132	148132.052153620928	5
2	6141	148297.860503517519	4
2	6147	148337.169250171241	5
2	6162	148786.336746542632	6
2	6165	148885.037569469544	7
2	6173	148930.04423407084	6
2	6178	149073.938159406613	5
2	6188	149189.467259321997	6
2	6191	149226.700028960594	7
2	6197	149413.381065767629	8
2	6200	149674.961780476363	9
2	6206	149702.601709928791	8
2	6214	149747.963127002033	7
2	6223	150312.519096700821	8
2	6232	150453.514908332805	7
2	6237	150454.800401396962	6
2	6247	150570.716944682771	7
2	6255	151048.482292771252	6
2	6264	151191.481515322308	5
2	6284	151705.77673763232	6
2	6287	151776.722564034069	7
2	6294	151805.457609184523	8
2	6299	151980.171795554372	7
2	6308	152081.136831663976	6
2	6318	152339.700958703268	7
2	6323	152511.395763311962	6
2	6329	152593.580255103682	7
2	6331	152618.929295048031	6
2	6337	152646.422742182671	7
2	6349	152946.785932101223	6
2	6365	153359.674374055544	5
2	6371	153368.660925614438	6
2	6381	153645.95366328269	7
2	6384	153748.012347988878	8
2	6386	153880.99849385387	7
2	6392	154030.144232455549	8
2	6394	154030.999282230118	7
2	6400	154091.52232199276	8
2	6405	154481.444636438468	7
2	6417	154793.317230150017	6
2	6426	154925.113256172892	7
2	6432	155063.789506863716	6
2	6437	155112.944431886503	5
2	6450	155645.766059304091	6
2	6456	155760.38533429099	5
2	6461	155903.295277610335	4
2	6470	156070.940613266507	3
2	6476	156337.919778129892	4
2	6478	156746.319591097448	3
2	6484	156782.519122471864	4
2	6486	156826.470725875774	3
2	6496	156975.282970065034	4
2	6509	157647.511268222665	5
2	6511	157698.527750439856	4
2	6516	157709.327985983768	3
2	6522	158122.170951607095	4
2	6524	158283.407804541716	3
2	6532	158443.30419627196	2
2	6538	158535.657856139043	3
2	6540	158548.384852730164	2
2	6552	159249.349530902186	1
2	6557	159382.410923793827	0
2	6574	159761.526685762301	1
2	6576	160134.032530788758	0
2	6652	162691.769664714672	1
2	6654	162850.505049482168	0
2	6740	165039.874590836707	1
2	6746	165362.901161476081	0
2	6794	166536.888488756688	1
2	6797	166626.219075329061	2
2	6799	166664.682286556843	1
2	6805	166678.991255824505	2
2	6820	167007.977386616459	1
2	6826	167095.118988394106	2
2	6843	167404.707965392652	1
2	6856	167698.836581312409	0
2	6888	168363.947831380196	1
2	6893	168441.692983358424	0
2	6899	168557.456832176175	1
2	6902	168792.201891957964	2
2	6905	168810.178897488812	3
2	6910	169092.000040672045	2
2	6915	169125.176907526498	1
2	6921	169552.809729297224	2
2	6930	169706.584727707576	1
2	6939	169974.07981511138	0
2	7033	172430.709075156777	1
2	7045	172799.278820053851	0
2	7065	173142.51823903699	1
2	7067	173243.222009166347	0
2	7111	174080.915139333067	1
2	7113	174089.876247476058	0
2	7119	174150.363787181641	1
2	7125	174280.502091302034	2
2	7128	174300.689885882242	3
2	7138	174414.175756799128	2
2	7143	174423.809018339233	1
2	7149	174502.760561009143	2
2	7158	174843.321515151533	3
2	7168	175195.397052633779	2
2	7173	175346.487829295989	1
2	7179	175451.653428973603	2
2	7182	175491.118610062682	3
2	7188	175684.650748781131	2
2	7193	175712.668587083068	1
2	7202	175913.770675472239	2
2	7205	176147.886371912879	3
2	7207	176359.69942841606	2
2	7216	176560.985504632887	1
2	7227	177087.879515962747	0
2	7236	177229.658846615157	1
2	7238	177242.294778692739	0
2	7344	179738.966541816614	1
2	7354	179969.938456654643	0
2	7371	180410.786783922127	1
2	7373	180437.339264057671	0
2	7382	180540.256084636526	1
2	7389	180569.841029514364	2
2	7392	180666.119772930151	3
2	7394	180874.591896883688	2
2	7400	180902.241516261982	3
2	7409	181287.768124822622	2
2	7418	181467.901937864266	1
2	7424	181474.240501206559	2
2	7427	181618.185563845594	3
2	7429	181655.235391087925	2
2	7434	182044.348361879682	1
2	7440	182058.810690568669	2
2	7442	182145.320229302637	1
2	7454	182568.747380967729	0
2	7593	186770.129084321364	1
2	7598	186969.562786145428	0
2	7604	186973.479564385471	1
2	7607	187026.758952331216	2
2	7610	187028.207657588648	3
2	7613	187037.600873485192	4
2	7622	187254.722837374094	3
2	7630	187336.316072175572	2
2	7643	187914.351148359957	1
2	7649	188157.835539107339	2
2	7658	188203.520947860847	1
2	7663	188337.683319148156	0
2	7669	188561.641878331924	1
2	7671	188784.898834692607	0
2	7677	189115.680428356923	1
2	7679	189145.855821740362	0
2	7694	189469.500098853852	1
2	7696	189532.924869450102	0
2	7770	191189.798346719375	1
2	7772	191214.440136883314	0
2	7800	191714.799673973383	1
2	7802	191725.714598565491	0
2	7847	192365.651761387538	1
2	7853	192447.013020801487	0
2	7859	192652.493223479278	1
2	7864	192707.086739358618	0
2	7893	192972.620599374909	1
2	7903	193193.464022516399	2
2	7911	193274.38988107494	1
2	7918	193314.007892893676	2
2	7923	193443.169402801558	1
2	7930	193470.633452801294	2
2	7936	193482.117388980512	3
2	7953	194071.965915999439	4
2	7955	194090.149179832205	3
2	7960	194102.119678848003	2
2	7966	194111.534942510915	3
2	7973	194212.131031719163	4
2	7976	194252.62482741176	5
2	7978	194369.172881033783	4
2	7988	194600.767150927384	5
2	8001	194776.871144530161	6
2	8004	194804.096311165359	7
2	8006	194820.910574779972	6
2	8012	194925.85196724261	7
2	8019	195037.43113581676	8
2	8021	195181.221198612019	7
2	8026	195207.316231757914	6
2	8039	195593.506018387776	7
2	8042	195606.515926665422	8
2	8044	195811.909001884177	7
2	8052	195891.66441100887	6
2	8063	196159.191078064158	5
2	8084	196583.162776601542	6
2	8086	196643.752841469958	5
2	8092	196831.430647035012	6
2	8098	196837.570556823676	5
2	8104	196983.177011759743	6
2	8110	197177.339252580469	5
2	8118	197561.974620246455	4
2	8130	197641.991152644669	3
2	8139	197791.316864498464	4
2	8142	197887.20696573175	5
2	8144	197945.82747422637	4
2	8149	197989.903318279003	3
2	8165	198273.971968939005	4
2	8177	198686.697277096226	3
2	8182	198733.850982647901	2
2	8188	198791.047294902682	3
2	8195	198876.062453547678	4
2	8200	198932.391843707427	3
2	8206	198941.199985336282	4
2	8209	198996.036446281256	5
2	8211	199130.210802920675	4
2	8224	199373.551383935973	3
2	8248	199840.718695239339	4
2	8253	199975.468197737402	3
2	8265	200160.166929592505	2
2	8274	200307.549682122237	1
2	8283	200530.521535569595	2
2	8289	200572.272090187821	3
2	8291	200669.905376837171	2
2	8297	200705.760063385051	3
2	8303	200854.571069018111	2
2	8309	200966.457792093571	3
2	8312	201205.069436550272	4
2	8314	201278.120686658785	3
2	8320	201303.181085721687	4
2	8323	201337.204139362464	5
2	8333	201516.686995599932	4
2	8338	201542.289536320731	3
2	8348	201689.354042058286	4
2	8362	202053.439235494054	3
2	8367	202143.247268167451	2
2	8373	202397.723243585864	3
2	8376	202613.44067600277	4
2	8378	202624.664812677122	3
2	8393	203018.087838203773	2
2	8402	203045.207553145058	1
2	8408	203143.28749249033	2
2	8417	203459.972541809596	1
2	8427	203844.810179691563	2
2	8429	203849.417255693242	1
2	8443	204099.906353828585	2
2	8445	204116.143167198218	1
2	8451	204419.5963506769	2
2	8454	204436.955837077867	3
2	8460	204617.18638033072	4
2	8462	204725.219756574497	3
2	8471	204854.105294060476	2
2	8477	205027.883693509606	3
2	8479	205186.151712522969	2
2	8491	205491.462939187761	3
2	8493	205493.03417714791	2
2	8505	205684.133508924909	1
2	8514	205828.151459121272	0
2	8579	207247.086010320612	1
2	8585	207444.530235644203	0
2	8595	207603.243857990273	1
2	8606	207908.998538910173	0