version 2
run Iteration-7-20200521-08:30:21-58712
attr configname Iteration
attr datetime 20200521-08:30:21
attr experiment Iteration
attr inifile omnetpp.ini
attr iterationvars "$i=8, $0=10-8"
attr iterationvarsf i=8,10-8-
attr measurement "$i=8, $0=10-8"
attr network Network
attr processid 58712
attr repetition 0
attr replication #0
attr resultdir results
attr runnumber 7
attr seedset 7
itervar i 8
param **.resourcePool.amount 8
param **.resourcePool1.amount 10-8
param **.source.interArrivalTime uniform(5s,15s)
param **.delay.delay uniform(10s,70s)
param **.delay1.delay uniform(20s,40s)
param **.allocate.resourceModuleName "\"Network.resourcePool\""
param **.allocate1.resourceModuleName "\"Network.resourcePool1\""
param **.deallocate.resourceModuleName "\"Network.resourcePool\""
param **.deallocate1.resourceModuleName "\"Network.resourcePool1\""

vector 0 Network.allocate queueLength:vector ETV
attr interpolationmode sample-hold
attr title "queue length, vector"
vector 1 Network.allocate1 queueLength:vector ETV
attr interpolationmode sample-hold
attr title "queue length, vector"
vector 2 Network.sinkStat lifeTime:vector ETV
attr interpolationmode none
attr title "lifetime of arrived jobs, vector"
attr unit s
0	0	0	0
1	0	0	0
1	32	68.849007752723	1
1	37	74.618443965445	0
1	42	74.634106724988	1
1	47	83.999233322683	0
1	52	87.874026277567	1
1	55	89.761945456266	2
1	64	104.687795871868	3
1	66	105.173739788587	2
1	74	112.065305046271	3
1	77	112.842278312891	4
1	82	120.074014139827	3
1	87	122.657199879176	4
1	95	138.660348311531	3
1	100	140.13651934918	4
1	102	144.341721215751	3
1	110	157.377583545167	4
1	112	163.912023815791	3
1	119	164.839705752674	2
1	124	166.143376110122	3
1	127	166.561898298096	4
1	135	189.009905059355	3
1	139	189.445763418916	2
1	144	197.803885356988	3
1	150	203.348029546905	4
1	155	212.10915230913	3
1	163	221.689267253969	4
1	166	225.356252419297	5
1	168	227.762491817119	4
1	179	238.364125723021	5
1	181	239.25865711877	4
1	186	239.832789651119	5
1	192	250.068102008663	6
1	195	250.743866455743	7
1	200	257.117548997047	6
1	208	262.940884407145	7
1	213	271.532726513686	6
1	218	273.903614161538	7
1	224	283.933259330226	8
1	226	284.435356718021	7
1	240	300.786707813388	8
1	242	310.691001077647	7
1	250	311.358930554708	8
1	253	314.71498406958	9
1	255	315.887863456736	8
1	263	323.056967672894	9
1	266	326.665885576515	10
1	269	331.592981196011	11
1	272	331.749774110505	12
1	277	336.895185944157	11
1	282	337.849814023359	12
1	284	343.294885067734	11
1	292	360.006203781816	12
1	297	365.270330521742	11
1	301	371.55472164275	10
1	309	381.693311159037	11
1	315	389.830007853455	12
1	320	392.136432521509	11
1	327	406.377099200616	10
1	332	409.144356166948	11
1	335	410.38937817328	12
1	341	417.392518881247	13
1	347	423.392088988334	14
1	349	425.275878857354	13
1	354	428.625560454097	14
1	359	434.674818830097	13
1	364	437.894207807262	14
1	367	439.907648116354	15
1	372	454.065905066671	14
1	379	465.161730719263	13
1	387	485.71371247061	14
1	392	488.799394287633	13
1	397	490.935205239807	14
1	403	497.336679375735	15
1	406	497.894646113277	16
1	408	498.820007762404	15
1	416	515.597065854822	16
1	421	521.781771325039	15
1	425	523.522415815385	14
1	436	537.048108398452	15
1	441	550.739858213345	14
1	445	560.490433441007	13
1	453	562.990279162771	14
1	456	565.726909043735	15
1	462	572.427503804214	16
1	467	581.391010105143	15
1	472	584.917452672965	16
1	477	586.665106650905	15
1	485	596.731775188821	16
1	488	599.02572066989	17
1	493	609.43877986865	16
1	501	611.747895062437	17
1	503	613.535837202796	16
1	511	621.153229677586	17
1	514	621.421662434007	18
1	520	630.000461174643	19
1	526	636.534448415043	20
1	528	641.833872657732	19
1	532	645.155113723594	18
1	540	654.489358873109	19
1	548	671.021102389783	18
1	552	675.602916323113	17
1	557	678.027273714545	18
1	563	681.675687886311	19
1	566	686.699335149026	20
1	572	693.163924289404	21
1	574	694.964611793399	20
1	584	709.101291669066	19
1	589	711.854389163201	20
1	594	719.70337657956	19
1	602	731.388931621334	20
1	605	731.928857471796	21
1	607	734.632553125265	20
1	612	736.159528379796	21
1	615	738.134059777951	22
1	620	743.218964280091	21
1	628	757.282426876484	22
1	631	757.863926766442	23
1	634	758.238217937762	24
1	637	759.977810077836	25
1	642	768.977397687267	24
1	649	778.953576048367	23
1	659	796.118810211773	22
1	667	800.898232713809	23
1	670	803.799874936232	24
1	675	808.438269852191	23
1	686	828.501145055054	24
1	688	830.68203598028	23
1	696	838.436601816213	24
1	698	838.706289941907	23
1	703	843.006935338492	24
1	706	845.335027838594	25
1	709	846.076562751552	26
1	715	856.322582664436	27
1	721	859.011179457887	28
1	723	859.944760298822	27
1	728	860.784160294573	28
1	730	862.964661412403	27
1	744	889.053047366909	28
1	747	891.034321002665	29
1	749	894.69907981576	28
1	756	896.513824255671	27
1	761	905.198761352806	28
1	770	913.845430966471	29
1	775	927.882247797675	28
1	782	932.475452425424	27
1	787	933.443529866639	28
1	790	934.505129256289	29
1	793	941.050557710699	30
1	802	947.712099358909	31
1	805	948.022628671028	32
1	810	962.237410990056	31
1	814	963.526850768826	30
1	819	965.123484160289	31
1	831	990.25802887278	32
1	834	991.469504341953	33
1	836	993.277900444805	32
1	841	996.303296773698	33
1	847	998.907360315792	34
1	849	1001.740204601083	33
1	860	1019.901141000449	34
1	863	1020.573986950333	35
1	865	1031.46154974354	34
1	872	1034.331343236845	33
1	880	1051.660385641738	34
1	883	1054.022948169152	35
1	888	1057.629298081156	34
1	895	1068.368452831633	33
1	900	1074.55462194281	34
1	906	1075.910464236517	35
1	912	1087.025908860382	36
1	915	1087.122714770961	37
1	917	1088.623580576386	36
1	928	1101.433422770355	37
1	930	1102.469860215202	36
1	935	1109.524763068188	37
1	941	1113.350029219877	38
1	944	1114.139550710101	39
1	947	1120.737850619484	40
1	952	1124.78099751519	39
1	959	1135.239400693677	38
1	964	1137.892483358741	39
1	969	1147.770723488647	38
1	979	1165.595002209298	37
1	987	1169.062430800408	38
1	990	1171.151030703917	39
1	993	1174.021995621737	40
1	996	1175.80319042318	41
1	1002	1179.104074111678	42
1	1004	1181.704641629476	41
1	1009	1187.364440057431	42
1	1014	1189.899160920173	41
2	39	74.618443965445	61.58197030425
2	49	83.999233322683	78.236150410957
2	68	105.173739788587	51.5293381433
2	84	120.074014139827	98.847818202339
2	97	138.660348311531	93.096074336208
2	104	144.341721215751	80.686114921701
2	114	163.912023815791	127.90359891718
2	121	164.839705752674	66.730581372976
2	137	189.009905059355	116.16057665786
2	141	189.445763418916	99.645031520631
2	157	212.10915230913	105.07060483564
2	170	227.762491817119	149.75405982463
2	183	239.25865711877	110.24271837203
2	202	257.117548997047	142.19754552003
2	215	271.532726513686	119.76177646778
2	228	284.435356718021	146.95968857035
2	244	310.691001077647	131.91112881992
2	257	315.887863456736	151.60928613972
2	279	336.895185944157	120.13239742955
2	286	343.294885067734	144.866850127
2	299	365.270330521742	179.74993064301
2	303	371.55472164275	143.10180069646
2	322	392.136432521509	184.22013961244
2	329	406.377099200616	171.91943851532
2	351	425.275878857354	172.26800222415
2	361	434.674818830097	154.66272472869
2	374	454.065905066671	209.78187532164
2	381	465.161730719263	177.00968980556
2	394	488.799394287633	226.0175061156
2	410	498.820007762404	228.27297255396
2	423	521.781771325039	221.36749198893
2	427	523.522415815385	228.94321745494
2	443	550.739858213345	239.85322763677
2	447	560.490433441007	238.02980819484
2	469	581.391010105143	220.52479634992
2	479	586.665106650905	249.99454597476
2	495	609.43877986865	235.63686612295
2	505	613.535837202796	267.53185489447
2	530	641.833872657732	228.52739642839
2	534	645.155113723594	263.34980917628
2	550	671.021102389783	267.9436881584
2	554	675.602916323113	253.24444947531
2	576	694.964611793399	303.11975579475
2	586	709.101291669066	236.57530077965
2	596	719.70337657956	285.67230204352
2	609	734.632553125265	276.66124549461
2	622	743.218964280091	297.09394584409
2	644	768.977397687267	281.911492676
2	651	778.953576048367	285.35027935635
2	661	796.118810211773	271.46797078196
2	677	808.438269852191	260.5779992789
2	690	830.68203598028	326.15279244724
2	700	838.706289941907	320.49173064995
2	725	859.944760298822	323.70158767095
2	732	862.964661412403	301.7187244608
2	751	894.69907981576	328.05668190587
2	758	896.513824255671	323.9154428197
2	777	927.882247797675	335.92615550616
2	784	932.475452425424	330.50012522843
2	812	962.237410990056	344.63529169792
2	816	963.526850768826	377.93951964238
2	838	993.277900444805	368.09623511042
2	851	1001.740204601083	390.79309928929
2	867	1031.46154974354	382.40003211889
2	874	1034.331343236845	398.95086109638
2	890	1057.629298081156	389.47770367842
2	897	1068.368452831633	413.20687991566
2	919	1088.623580576386	389.05029935064
2	932	1102.469860215202	424.33907473925
2	954	1124.78099751519	419.80115818791
2	961	1135.239400693677	416.50284409522
2	971	1147.770723488647	408.73565098038
2	981	1165.595002209298	473.70346562703
2	1006	1181.704641629476	455.63717869576
2	1016	1189.899160920173	437.44779196567

