version 2
run Iteration-28-20200521-09:52:24-54716
attr configname Iteration
attr datetime 20200521-09:52:24
attr experiment Iteration
attr inifile omnetpp.ini
attr iterationvars "$i=3, $j=4, $0=15-(3+4)"
attr iterationvarsf i=3,j=4,15-(3+4)-
attr measurement "$i=3, $j=4, $0=15-(3+4)"
attr network Network
attr processid 54716
attr repetition 0
attr replication #0
attr resultdir results
attr runnumber 28
attr seedset 28
itervar i 3
itervar j 4
param **.resourcePool.amount 3
param **.resourcePool1.amount 4
param **.resourcePool2.amount 15-(3+4)
param **.source.interArrivalTime exponential(6min)
param **.delay.delay uniform(4min,28min)
param **.delay1.delay uniform(10min,28min)
param **.delay2.delay uniform(4min,16min)
param **.allocate.resourceModuleName "\"Network.resourcePool\""
param **.allocate1.resourceModuleName "\"Network.resourcePool1\""
param **.allocate2.resourceModuleName "\"Network.resourcePool2\""
param **.deallocate.resourceModuleName "\"Network.resourcePool\""
param **.deallocate1.resourceModuleName "\"Network.resourcePool1\""
param **.deallocate2.resourceModuleName "\"Network.resourcePool2\""
param **.router.randomGateIndex "uniform(0, 1) > 0.2 ? 0 : 1"

vector 0 Network.allocate queueLength:vector ETV
attr interpolationmode sample-hold
attr title "queue length, vector"
vector 1 Network.allocate1 queueLength:vector ETV
attr interpolationmode sample-hold
attr title "queue length, vector"
vector 2 Network.allocate2 queueLength:vector ETV
attr interpolationmode sample-hold
attr title "queue length, vector"
vector 3 Network.sinkStat lifeTime:vector ETV
attr interpolationmode none
attr title "lifetime of arrived jobs, vector"
attr unit s
vector 4 Network.sink lifeTime:vector ETV
attr interpolationmode none
attr title "lifetime of arrived jobs, vector"
attr unit s
0	0	0	0
0	11	724.379140674689	1
0	13	906.521475825167	2
0	15	957.435827478296	1
0	20	1453.754551566329	2
0	22	1461.551940889987	3
0	24	1472.320047866823	2
0	29	1518.232405375543	1
0	34	1534.178674689054	2
0	36	1649.280908330805	1
0	45	2160.628806368738	2
0	47	2413.976917963745	1
0	60	2956.877482481725	2
0	62	2966.492122534009	3
0	68	3104.126182090345	2
0	77	3306.548302471168	1
0	82	3366.759085564845	2
0	84	3432.225124255086	3
0	86	3708.117163404627	4
0	96	3889.278514478447	5
0	106	3969.873401224144	4
0	111	4051.921857062997	3
0	116	4182.54470325916	4
0	118	4480.061422491954	5
0	120	4498.104570809606	4
0	129	4666.90012429639	5
0	135	4828.45251467032	4
0	144	4866.764272464239	5
0	150	5401.895361292119	6
0	160	5460.141259461054	7
0	162	5487.221797619285	6
0	167	5497.770529242384	7
0	173	5525.096339898695	8
0	183	5738.465326831348	9
0	185	5751.978785702356	10
0	187	5808.601458739369	11
0	189	5934.58373517156	10
0	194	5952.694971225687	9
0	199	6077.516177059216	10
0	221	6482.218022190352	11
0	223	6866.403072465365	12
0	229	7102.632665287973	11
0	238	7276.57474309564	10
0	243	7318.465250022241	9
0	256	7643.677601143249	8
0	261	7730.191487322853	9
0	267	8284.646326716844	8
0	276	8428.689846944334	7
0	285	8544.236879756633	8
0	291	8757.817851159576	7
0	300	8786.809268258043	6
0	313	9062.930914374372	7
0	319	9193.059487168609	8
0	321	9212.539161697753	9
0	323	9222.864048186544	8
0	327	9253.203310965848	9
0	338	9522.838893201057	8
0	343	9628.746298168125	7
0	347	9656.381442127224	8
0	353	9896.764166451989	9
0	360	9940.649914368518	8
0	377	10331.35261795778	9
0	387	10590.663919560142	8
0	400	11024.061991911236	7
0	405	11064.320778995283	6
0	417	11304.610105220499	5
0	431	11334.457386251394	4
0	440	11507.347385329334	5
0	454	12008.296661783878	6
0	456	12050.531477372948	5
0	473	12311.76239806189	6
0	475	12313.106886110731	5
0	480	12341.224948156896	4
0	485	12357.551146289256	5
0	491	12488.260227236519	6
0	509	12800.5525703764	5
0	518	13026.02249919732	6
0	520	13478.69236784828	5
0	529	13550.39854195327	4
0	538	13643.600674571038	5
0	544	13779.611744582184	4
0	549	13845.038078160888	5
0	567	14340.665193836991	4
0	580	14941.714015136988	5
0	586	15092.083724912527	4
0	591	15114.895822330806	5
0	593	15133.095420453552	4
0	602	15325.791686970174	5
0	604	15335.186499468513	4
0	609	15421.389381145142	5
0	615	15518.97726133626	6
0	617	15559.219013098216	7
0	623	15639.065538201336	6
0	632	15751.966812592074	7
0	638	15912.046891533519	8
0	640	16095.555450580545	7
0	645	16239.49926975024	6
0	653	16506.751172563574	7
0	655	16525.999964352968	6
0	663	16600.099512909891	7
0	670	16735.577623475198	6
0	679	16967.18725424213	5
0	683	17007.565376343752	6
0	685	17173.109022308367	7
0	687	17202.304593711527	8
0	702	17425.7041501126	9
0	713	17747.407098486551	8
0	718	17766.897934310795	9
0	720	17809.15627597672	8
0	724	17843.072056819999	9
0	735	18005.488206283563	10
0	745	18141.19369097412	9
0	766	18744.915824745121	8
0	779	18924.173881560096	7
0	792	19304.633372238683	8
0	794	19415.286896791164	7
0	803	19669.81082162072	8
0	809	19745.280595780563	9
0	811	19821.921185627112	8
0	820	20060.163948152485	7
0	833	20258.766663897221	8
0	839	20300.207156170015	7
0	844	20341.886863928042	8
0	846	20394.299290172042	9
0	852	20601.51813871068	8
0	861	20995.785280428359	7
0	874	21130.418035503332	6
0	879	21268.719822999087	7
0	893	21658.282776799324	6
0	898	21793.401029911625	7
0	916	22208.954050726721	6
0	921	22368.978144382154	7
0	927	22413.792003663612	8
0	929	22432.423495542113	7
0	942	22606.417477962381	8
0	944	22686.180441744093	9
0	958	23281.671910051528	8
0	967	23356.37357416357	9
0	969	23453.552917939047	10
0	975	23513.45615209172	11
0	977	23530.890907036794	12
0	979	23554.298234921225	13
0	981	23587.654416586617	14
0	983	23642.429235098425	15
0	985	23672.624553218016	14
0	994	23947.68891632915	13
0	999	23954.401205409405	14
0	1005	24098.963652993645	15
0	1007	24243.534574880728	14
0	1012	24297.924841877091	15
0	1022	24545.52030984488	16
0	1028	24938.156308036569	15
0	1033	25308.821154697178	16
0	1039	25360.310660739274	17
0	1041	25420.932451452916	16
0	1046	25451.640350025419	15
0	1055	25498.561058598529	16
0	1057	25771.34544528974	15
0	1066	25836.764168878014	16
0	1068	26068.511430397162	15
0	1072	26144.454507648185	16
0	1083	26350.775745497092	17
0	1085	26355.653587717835	16
0	1094	26393.507861349588	15
0	1107	26724.420945085117	14
0	1115	26867.513539742951	13
0	1128	27175.314478230004	12
0	1137	27369.131874509509	13
0	1148	27560.367102771529	12
0	1152	27573.693600263303	11
0	1156	27748.894844301496	12
0	1158	27862.207838236704	13
0	1165	27952.825081910794	12
0	1183	28094.904518223717	13
0	1193	28353.643841258713	12
0	1197	28421.07783445507	13
0	1204	28491.327377161171	14
0	1206	28581.992704186861	13
0	1231	28863.59189267312	14
0	1241	29094.392825279657	13
0	1258	29479.77579471082	12
0	1263	29677.083416563718	13
0	1265	29768.377531133124	12
0	1269	29771.299435464373	13
0	1271	29797.997956909612	14
0	1278	29875.316310267752	13
0	1282	29963.570172328774	12
0	1291	30020.272706775198	13
0	1293	30184.155267035838	14
0	1295	30193.238364877241	15
0	1297	30334.617618023881	14
0	1315	30746.471680162962	15
0	1333	31189.999413605636	14
0	1342	31405.773234766249	13
0	1347	31526.501732430884	12
0	1360	31780.641613993381	13
0	1366	31956.436302028128	12
0	1374	32268.822087265702	13
0	1376	32272.178872514789	12
0	1390	32349.55710381146	13
0	1392	32562.353647061365	14
0	1394	32622.529703381341	15
0	1400	32794.696368019885	14
0	1405	32862.950844010376	15
0	1419	33131.197286586037	16
0	1425	33304.021648283905	15
0	1434	33603.685421533414	14
0	1443	33882.1457497294	13
0	1460	34081.949736976979	14
0	1462	34126.23205342893	15
0	1468	34353.427302863722	14
0	1481	34557.127467807697	15
0	1483	34622.829198166259	14
0	1492	34829.991013560301	13
0	1501	35227.222588806875	12
0	1510	35379.913249824469	11
0	1514	35524.829716858567	12
0	1516	35559.566322391739	13
0	1518	35571.880461729851	14
0	1520	35678.147026900059	13
0	1533	35760.66710282309	14
0	1548	36088.780576996036	13
0	1557	36202.271642077987	12
0	1562	36234.409204473194	13
0	1564	36281.002301428324	12
0	1577	36375.908213420651	13
0	1583	36611.760214570767	12
0	1600	36816.343461479492	13
0	1610	36993.154158655827	12
0	1619	37097.207377201346	13
0	1625	37236.451058898394	12
0	1638	37571.77760145468	11
0	1643	37651.820081346476	12
0	1645	37660.142323192066	11
0	1649	37700.147041268178	10
0	1675	38178.300942526347	11
0	1681	38364.670166837967	12
0	1683	38509.015509709247	11
0	1708	38783.948853727287	10
0	1717	39011.162856080039	11
0	1719	39100.305127575214	12
0	1721	39145.340587411349	11
0	1730	39328.358758190459	12
0	1736	39416.316918382334	13
0	1738	39637.860677502581	12
0	1751	40168.559237867125	11
0	1760	40208.384317707544	10
0	1765	40231.601692915448	11
0	1767	40247.653592269725	10
0	1771	40526.453029035123	11
0	1786	40704.424612033929	12
0	1796	40953.230913526537	13
0	1798	41051.271681487092	12
0	1803	41288.997325250998	13
0	1809	41379.785674394926	14
0	1815	41646.262468422	15
0	1817	41749.097429405755	14
0	1826	41828.356788743561	13
0	1831	41952.51925504422	14
0	1845	42375.60523003293	13
0	1850	42465.451851927544	14
0	1856	42511.82951897741	13
0	1861	42532.208597349608	14
0	1871	42841.367451477653	13
0	1876	42909.668961826986	12
0	1880	43086.761432587633	11
0	1889	43258.652233024806	12
0	1904	43663.261262912577	11
0	1913	43834.380544721613	10
0	1918	44009.391353611547	11
0	1920	44047.852131148365	12
0	1922	44058.846274841434	11
0	1930	44096.067050801693	12
0	1945	44345.165824442635	11
0	1957	44568.278824406199	12
0	1959	44577.569984312958	11
0	1963	44595.472479691095	12
0	1965	44653.305460240966	11
0	1969	44699.135669634658	12
0	1998	45607.418723664711	11
0	2007	45695.763794691877	12
0	2009	45792.22232973534	13
0	2027	45962.856779325611	12
0	2036	46069.541974827551	13
0	2038	46132.313197627197	12
0	2043	46267.77732207281	11
0	2052	46386.713660617691	12
0	2062	46658.433996969467	13
0	2072	47075.457443209037	14
0	2074	47125.405523780591	13
0	2079	47329.687342501745	14
0	2085	47558.854142244763	13
0	2090	47585.385036718375	12
0	2099	47718.215139992069	11
0	2103	47859.940380371835	12
0	2114	48046.98487542523	11
0	2119	48198.22946376846	12
0	2121	48205.022779616049	13
0	2123	48211.557813327617	12
0	2131	48266.366967841627	13
0	2133	48307.345762363513	14
0	2143	48772.080403704471	13
0	2161	49281.509854234289	12
0	2178	49626.314084130772	13
0	2184	49720.02592571438	12
0	2193	50154.701750017237	11
0	2206	50285.281018082327	10
0	2210	50350.782637350962	11
0	2237	51223.359930630631	10
0	2242	51252.293417848589	11
0	2244	51260.115648377794	12
0	2246	51307.089187156684	11
0	2251	51504.184036041501	12
0	2261	51640.430217086803	11
0	2266	51758.573756877608	10
0	2275	52021.025108955335	9
0	2279	52055.871716660542	10
0	2294	52595.045791430973	11
0	2296	52626.972667615647	12
0	2298	52675.835877064473	11
0	2303	52741.179298689575	12
0	2305	52907.615718035732	13
0	2307	52928.082334270793	14
0	2309	52971.757314390969	13
0	2313	52973.370255556233	12
0	2326	53050.073731175863	13
0	2337	53465.644861720037	12
0	2346	53672.407878789908	11
0	2354	53740.724167440362	10
0	2372	54036.710743289364	11
0	2390	54323.376577299364	10
0	2395	54333.583801578588	9
0	2400	54487.837692411882	10
0	2402	54572.178972725101	9
0	2419	54787.93551716907	8
0	2432	54996.455216244424	9
0	2434	55055.156290087707	8
0	2447	55367.353737021928	9
0	2453	55463.450648401208	8
0	2462	55878.139471759842	9
0	2476	56130.013097391976	10
0	2478	56158.861298762463	11
0	2480	56211.039875447285	10
0	2493	56402.107896398611	9
0	2498	56402.180745377163	10
0	2508	56620.340436063242	9
0	2513	56668.218192900666	10
0	2515	56669.562521469115	11
0	2525	56888.066313866384	10
0	2530	56988.970921699233	9
0	2543	57475.347056984437	8
0	2556	57744.000170667	7
0	2561	57764.006036125172	8
0	2563	57869.127978048754	7
0	2571	58011.387760088249	8
0	2586	58174.302717078335	7
0	2603	58752.724199284144	6
0	2620	59084.977755684185	7
0	2630	59276.143656045296	8
0	2636	59401.078074983788	7
0	2641	59415.018322471387	6
0	2646	59438.491832714804	5
0	2659	59863.260608970218	6
0	2661	60093.158589977629	5
0	2670	60217.552759762142	6
0	2676	60436.584586266704	5
0	2681	60470.275521430976	4
0	2706	60921.105765592165	3
0	2711	61062.584692090285	2
0	2716	61087.00905505059	3
0	2718	61149.456668846799	4
0	2720	61281.641590937339	5
0	2722	61423.758289877601	4
0	2743	61675.882126526419	5
0	2749	61757.070878241023	6
0	2755	61999.2669782466	7
0	2757	62000.260039497025	6
0	2774	62485.418197884691	5
0	2779	62500.701171978934	6
0	2789	62801.780171560041	7
0	2791	62808.390533752929	8
0	2801	63095.783518877156	7
0	2806	63143.566908169396	6
0	2823	63638.728807977867	5
0	2828	63747.573508913619	6
0	2842	64217.559432263528	7
0	2844	64311.915920589395	6
0	2853	64421.49923068153	7
0	2859	64709.270897264558	8
0	2861	64762.469047386058	7
0	2874	65049.042675297983	6
0	2879	65065.66006769366	7
0	2881	65078.571417745062	6
0	2890	65246.882269869848	7
0	2896	65271.540193818045	6
0	2901	65412.553037356861	5
0	2905	65516.269576556761	6
0	2907	65765.931423522856	7
0	2909	65887.009326677665	8
0	2911	65984.390657176391	9
0	2926	66521.024611171611	8
0	2931	66598.413149457284	7
0	2952	66816.889960914386	6
0	2957	67057.340872574874	5
0	2970	67104.440678993825	6
0	2972	67149.323730892969	7
0	2974	67232.97682371349	6
0	2982	67341.173322721852	5
0	2986	67361.178106454792	6
0	2988	67382.112720043985	7
0	2990	67828.938283004549	8
0	2997	67992.307029080397	9
0	3004	68116.09552514069	10
0	3014	68227.163288566837	11
0	3016	68231.991931338955	12
0	3026	68499.436559987071	13
0	3028	68508.496056039163	12
0	3033	68575.239385962023	11
0	3038	68647.392716380484	12
0	3044	68774.023391123721	11
0	3048	69095.709003382436	12
0	3050	69140.120494054701	13
0	3056	69277.192739417969	14
0	3067	69408.897561248252	13
0	3072	69451.001650889032	14
0	3078	69533.264331192894	15
0	3080	69607.596544073273	16
0	3090	69802.425434216394	15
0	3107	70137.200386911175	16
0	3109	70157.005063433477	15
0	3118	70368.532797023191	14
0	3123	70497.394962821433	13
0	3127	70501.634935617988	14
0	3133	70727.665536481747	13
0	3142	71100.594135666247	14
0	3144	71113.997850673873	15
0	3146	71142.648882519731	14
0	3150	71193.024793568859	13
0	3163	71352.647200583853	14
0	3170	71421.911596197912	13
0	3179	71776.061487201462	12
0	3183	71887.652998081877	11
0	3200	72101.633228089938	10
0	3208	72359.596449023446	11
0	3214	72755.883586284051	10
0	3218	72781.740494138588	11
0	3220	72825.045212506785	10
0	3239	73078.479575257609	9
0	3243	73235.853941951225	8
0	3252	73388.591684116594	9
0	3266	73804.154384532029	10
0	3268	73841.091132055829	9
0	3272	73939.619566637508	10
0	3279	73975.580556828807	9
0	3292	74226.453978679611	8
0	3310	74482.894862931083	7
0	3318	74755.074462619607	8
0	3320	74805.215732547968	9
0	3326	75134.777789098013	10
0	3328	75149.285674951507	9
0	3332	75208.099560599992	10
0	3334	75213.322933729599	9
0	3347	75383.104478401202	10
0	3354	75465.338059610682	11
0	3361	75612.896294955443	10
0	3365	75691.240714207624	11
0	3393	76518.624451122715	10
0	3411	76664.929374184738	9
0	3415	76730.772547846209	10
0	3417	76790.15949208648	9
0	3421	76829.099699843594	10
0	3445	77653.800173666189	9
0	3454	77909.337775993997	10
0	3460	77963.058122958849	9
0	3468	78036.694095086585	8
0	3472	78053.635214490116	9
0	3474	78136.027739365884	10
0	3476	78175.112982391848	9
0	3485	78538.580770220886	8
0	3508	79290.049508292089	7
0	3512	79299.417963277827	6
0	3516	79358.089307577044	7
0	3526	79492.137469797864	6
0	3544	79638.488861250264	7
0	3546	79716.438880955055	8
0	3548	79741.142360485025	9
0	3550	79752.414291831615	10
0	3552	79808.956515525432	11
0	3554	79866.639026206265	10
0	3558	79917.408485155414	9
0	3566	80055.872816703751	8
0	3579	80245.212524224351	7
0	3587	80480.451462174414	8
0	3589	80520.259349791851	9
0	3591	80561.507664374159	10
0	3593	80637.602264609466	9
0	3607	80834.822722974791	10
0	3609	80843.828897293519	9
0	3613	81006.242034755046	10
0	3620	81308.764521143868	9
0	3624	81414.832577694486	8
0	3636	81458.022860222585	9
0	3647	81624.374525167166	10
0	3649	81682.145001168641	11
0	3651	81706.491747833326	10
0	3655	81817.933943074475	9
0	3674	82301.43184367926	8
0	3678	82357.265320659188	9
0	3685	82391.322826313963	10
0	3695	82571.815613080446	11
0	3705	82760.585477862786	10
0	3713	82864.425368685137	9
0	3722	83025.453196864854	8
0	3726	83055.108467196124	9
0	3728	83141.919176800712	10
0	3730	83166.626132912472	9
0	3734	83503.266644295167	8
0	3752	83772.663123905197	7
0	3761	83958.04670017295	8
0	3768	84181.866063078726	9
0	3778	84307.331454333197	8
0	3786	84575.89861146016	7
0	3795	84753.412061184183	6
0	3813	85152.951902937006	5
0	3817	85230.251886896715	6
0	3819	85233.850768551726	7
0	3821	85248.401954535674	6
0	3825	85317.948060735094	7
0	3840	85562.015687890841	8
0	3842	85584.081284332882	7
0	3850	85727.900073292614	8
0	3852	85837.581774842273	7
0	3856	85879.473553872625	8
0	3867	86277.380275329676	9
0	3879	86406.052972338632	8
0	3888	86470.562495481084	7
0	3892	86715.665003511916	6
0	3900	87030.198037610323	7
0	3924	87342.944880486756	8
0	3926	87384.838308654264	7
0	3930	87511.149786662589	6
0	3939	87568.20962310196	5
0	3947	87624.8123339326	6
0	3954	87887.08572237594	5
0	3962	88291.560684740082	4
0	3974	88399.777732853125	3
0	3998	89138.595148589323	2
0	4002	89206.562016260158	1
0	4010	89549.610220127543	2
0	4025	89647.455362173906	3
0	4036	89705.478670600663	2
0	4040	89710.297408289746	1
0	4049	90015.691971916985	0
0	4057	90026.347937575144	1
0	4063	90346.362887995663	2
0	4070	90574.250478710841	1
0	4083	90729.92203227086	0
0	4117	91312.013312522884	1
0	4128	91665.512238807142	2
0	4139	91964.035526670599	3
0	4141	91970.066382364083	4
0	4143	92060.818621393573	3
0	4147	92064.105621891394	2
0	4164	92395.738367013061	1
0	4173	92442.853530442894	2
0	4175	92544.722043972742	1
0	4192	93171.107708270028	0
0	4201	93263.307001455359	1
0	4221	93642.935966344848	0
0	4273	94853.714386186152	1
0	4275	94855.447149153195	2
0	4277	94905.265053086848	3
0	4283	94984.702978853958	2
0	4287	95052.499466331974	1
0	4291	95139.892486545047	2
0	4302	95602.661200002897	3
0	4319	95836.000513073879	2
0	4323	95908.676671709828	3
0	4325	95930.346584162783	4
0	4331	96082.3036130677	5
0	4333	96200.709462050946	4
0	4346	96329.788140655411	5
0	4361	96475.225298533515	4
0	4365	96553.709146861584	3
0	4374	96708.903379652703	4
0	4393	97150.244117353934	3
0	4397	97166.645306922519	4
0	4412	97301.450223062785	3
0	4425	97708.541714460186	4
0	4431	97831.793210847166	5
0	4437	97983.079846327084	4
0	4446	98126.055911051408	3
0	4451	98156.075877975587	4
0	4457	98183.236467723401	3
0	4466	98600.525751833695	2
0	4475	98788.927005489023	1
0	4492	99090.43303744711	0
0	4512	99356.638102030525	1
0	4514	99434.327642832848	2
0	4516	99456.207590939775	1
0	4524	99488.313703889482	2
0	4534	99680.333200751987	1
0	4538	99853.416865634099	0
0	4583	100946.539688575019	1
0	4597	101147.752440858243	2
0	4599	101149.483780578309	1
0	4608	101304.720103347973	0
0	4625	101973.641722471119	1
0	4631	101985.703498451831	2
0	4637	102166.022593954116	3
0	4643	102282.662376553351	2
0	4652	102444.412573906929	1
0	4657	102717.427164169113	2
0	4663	102877.294144759254	1
0	4668	102895.078645550333	2
0	4670	103050.502091604621	1
0	4691	103502.792345934147	0
0	4799	105872.365192152859	1
0	4805	106213.45780109758	2
0	4807	106273.463046800472	1
0	4812	106397.081678471633	0
0	4817	106427.085929224092	1
0	4819	106483.430329839171	2
0	4821	106613.898297868274	1
0	4830	107174.09025768861	2
0	4832	107290.905779259518	3
0	4846	107760.39932767687	2
0	4851	107867.787376030885	1
0	4856	108003.795310742327	0
0	4899	108928.790455211076	1
0	4905	109056.736065298834	2
0	4911	109330.85670470178	3
0	4917	109406.662316754005	2
0	4922	109432.361067447938	1
0	4931	109692.352201364479	0
0	4993	111405.276624757937	1
0	4995	111478.636743184976	0
0	5012	111848.144769236854	1
0	5018	112140.419396586543	0
0	5023	112145.659822269114	1
0	5025	112173.402529378287	0
0	5252	121543.343842157591	1
0	5258	121714.852715906741	2
0	5260	121926.099772591549	1
0	5269	122178.978583737497	0
0	5285	122577.850004155437	1
0	5287	122594.19547650892	0
0	5291	122634.974748481448	1
0	5298	122922.101287165221	2
0	5308	123167.93815805431	1
0	5325	123495.105570661701	0
0	5330	123660.516167293917	1
0	5336	123966.605040202714	0
0	5349	124197.075307965036	1
0	5355	124266.592936440592	0
0	5360	124384.9326745649	1
0	5370	124622.683830967141	2
0	5380	124799.594571088759	3
0	5382	124823.264828127283	2
0	5399	125467.253393488802	1
0	5408	125643.358295410161	0
0	5428	125915.949207095151	1
0	5434	126349.459927443821	0
0	5458	127012.183235806679	1
0	5468	127142.631945162301	0
0	5496	127769.637002069328	1
0	5502	127872.249634251434	2
0	5504	128179.409094220149	3
0	5510	128296.037202271591	2
0	5515	128359.262372569276	3
0	5517	128402.55475332816	4
0	5523	128647.450119591539	3
0	5528	128674.231006117635	4
0	5530	128746.74554100942	5
0	5540	129392.526888492535	4
0	5545	129506.354611813312	3
0	5550	129518.728510659007	4
0	5556	129533.883744570385	3
0	5565	129994.929864796828	2
0	5578	130280.462097878586	1
0	5583	130286.151360138287	2
0	5589	130357.538963579411	3
0	5599	130674.722980371898	2
0	5604	130742.226078080963	1
0	5609	130823.01480964682	2
0	5627	131066.990775163462	3
0	5629	131074.853673967551	2
0	5638	131182.116613517474	1
0	5642	131303.00564698804	0
0	5657	131656.997358419126	1
0	5668	132188.903708921625	2
0	5675	132531.77692523976	3
0	5677	132557.294622458044	4
0	5695	132660.057247978065	3
0	5700	132667.352471518349	2
0	5709	132976.097266636079	1
0	5722	133260.959556158187	2
0	5724	133392.853798101675	1
0	5733	133453.3052926876	0
0	5741	133581.631069782641	1
0	5748	133758.813024863056	2
0	5758	133921.318033730802	3
0	5760	134071.189292397711	2
0	5773	134217.008640519918	3
0	5783	134445.467288158124	2
0	5788	134545.787163021207	3
0	5794	134680.133429048981	4
0	5796	134701.812790463698	3
0	5817	135206.466676358495	2
0	5830	135748.52810374311	1
0	5843	136052.816962274582	2
0	5845	136065.054203382915	1
0	5850	136065.08342465873	2
0	5852	136223.569259421926	3
0	5854	136226.358328224164	4
0	5856	136262.088508251143	3
0	5865	136445.898153171504	4
0	5871	136575.377338918877	3
0	5876	136635.792376760755	2
0	5885	136770.111219878939	3
0	5887	136799.644021204895	2
0	5895	136926.965260532115	1
0	5908	137210.356141053929	2
0	5910	137260.186340425525	1
0	5928	137630.954541444716	2
0	5934	137944.033903240261	3
0	5940	138028.624074774814	2
0	5953	138170.472877669258	3
0	5955	138263.900720811671	2
0	5964	138508.617199560855	3
0	5974	138718.820736322914	2
0	5979	138853.515988291601	3
0	5985	139039.074694744634	4
0	5991	139300.60870522542	3
0	6000	139405.43994771019	4
0	6002	139422.00674276728	3
0	6007	139432.626130905364	2
0	6016	139738.877364982347	3
0	6038	140395.885005213547	4
0	6040	140546.517571051035	3
0	6049	140639.810887115065	4
0	6055	140749.200782737916	3
0	6064	140764.44224713279	2
0	6069	140780.662654326381	3
0	6075	141190.170631129857	4
0	6085	141732.125627827055	5
0	6095	141902.35825454725	4
0	6100	141906.177285526309	3
0	6105	142006.039477437025	2
0	6110	142033.127972160793	3
0	6116	142167.282121847616	4
0	6118	142260.156933008468	5
0	6120	142285.199804444227	4
0	6124	142376.054212450272	3
0	6133	142577.032244842108	4
0	6148	142848.550678755275	5
0	6150	142927.157896661794	6
0	6168	143345.797133472178	5
0	6177	143550.783602631873	4
0	6186	143579.027401897144	3
0	6191	143646.34631554446	2
0	6196	143830.269970297104	1
0	6204	143978.510804261983	2
0	6214	144460.517210834006	3
0	6221	144662.576586120454	4
0	6223	144788.270070645046	3
0	6236	145004.505527912861	2
0	6241	145048.514981706057	1
0	6266	145583.787516121183	0
0	6271	145661.304818782889	1
0	6277	145681.270989906924	2
0	6291	146276.059291660076	1
0	6300	146351.424995641243	0
0	6324	146996.022002016454	1
0	6330	147066.196511517298	0
0	6335	147191.772915129022	1
0	6337	147313.722332545279	2
0	6351	147633.415236360615	1
0	6356	147642.272773488527	0
0	6391	148418.823791830183	1
0	6397	148725.641459076887	0
0	6433	149200.88266655627	1
0	6443	149458.039734437352	0
0	6474	150372.469209031131	1
0	6480	150468.261655419355	0
0	6496	150754.64273014236	1
0	6514	151159.366173697125	2
0	6520	151227.689571123105	1
0	6529	151292.323047721869	0
0	6538	151431.667218340649	1
0	6540	151605.510713457351	0
0	6545	151834.122463651282	1
0	6555	151927.689487520421	2
0	6557	152114.703008528703	3
0	6563	152186.894183215094	4
0	6565	152215.513449652044	5
0	6571	152241.938921957498	4
0	6580	152383.012083633984	5
0	6586	152465.562452020234	4
0	6595	152566.658033886466	5
0	6597	152685.635520074051	4
0	6602	152895.066533534843	5
0	6604	152971.816138354803	6
0	6618	153208.81846640585	5
0	6627	153464.856373870856	4
0	6632	153540.89536663837	5
0	6634	153632.944744489377	4
0	6647	153813.309345285874	3
0	6652	153909.377213634479	4
0	6658	154015.139347212546	5
0	6660	154255.10390419839	4
0	6668	154476.321648599691	3
0	6677	154963.83792324577	4
0	6684	155038.398691899365	3
0	6697	155199.156521799154	2
0	6706	155591.35620046336	1
0	6710	155600.50192643283	0
0	6714	155625.681961101809	1
0	6733	155921.86872702021	0
0	6737	155924.450413028808	1
0	6739	155936.643652726096	2
0	6741	156034.138960510511	3
0	6748	156236.243729563691	4
0	6763	156455.339806320257	3
0	6772	156742.104095182604	2
0	6777	156822.653961533792	1
0	6781	157062.545684523155	2
0	6800	157195.323558564764	1
0	6804	157403.243973565362	2
0	6810	157617.038558291383	1
0	6823	157746.899974964747	2
0	6825	157786.942934663885	3
0	6827	157819.050909211469	4
0	6834	157907.840875568662	5
0	6836	157999.801525919921	4
0	6853	158287.476323991305	3
0	6878	158736.391787547447	4
0	6880	158789.880814741832	3
0	6893	159266.249771358557	2
0	6902	159338.767317467036	3
0	6904	159340.976349942505	4
0	6906	159432.942967931243	5
0	6908	159444.385702610701	6
0	6910	159548.544195274003	5
0	6915	159611.739652135633	6
0	6921	159714.495728900608	7
0	6923	159763.888240977413	6
0	6940	160034.221596530861	5
0	6945	160226.425754915458	4
0	6953	160385.600516254194	3
0	6957	160469.482322986183	4
0	6969	160815.44596792735	5
0	6975	160956.78795897806	6
0	6989	161318.192850028276	7
0	6991	161345.86200815414	8
0	6993	161427.326684313007	7
0	6998	161599.579826480932	6
0	7007	161637.507916617674	5
0	7024	162111.256927702111	4
0	7033	162172.820624770547	5
0	7035	162240.129799837319	6
0	7037	162288.474512621052	5
0	7046	162423.582902865596	4
0	7055	162591.378951571352	5
0	7061	162718.481874970087	6
0	7067	162848.559352480297	7
0	7069	162851.725515689236	6
0	7074	162887.855707830089	7
0	7084	163191.061735450513	6
0	7097	163585.135852121887	7
0	7099	163623.979805722125	8
0	7101	163671.591969856984	9
0	7111	163831.961380268964	10
0	7113	163843.784539096874	11
0	7119	163953.796227553971	10
0	7124	163963.853212305776	11
0	7138	164392.134941447061	10
0	7151	164649.473587821343	11
0	7153	164720.700112039335	10
0	7158	164763.775035477466	9
0	7163	164764.127198886577	10
0	7169	165074.549970568721	11
0	7175	165355.232861343306	10
0	7196	165829.015060672372	11
0	7206	166057.657965475805	10
0	7211	166184.279146980029	9
0	7216	166333.049715248043	10
0	7218	166348.418052866346	9
0	7223	166643.458851853497	8
0	7236	166793.821203786415	7
0	7240	166855.575037737986	8
0	7247	167101.021629476901	9
0	7249	167262.987751224295	10
0	7259	167560.431372706302	11
0	7265	167689.799888603027	12
0	7279	167834.444563984162	11
0	7288	168002.873511400598	12
0	7290	168037.664157503912	13
0	7292	168079.688792729862	12
0	7301	168230.515877123604	13
0	7303	168306.75353255449	12
0	7308	168468.701001310833	11
0	7321	168624.129724401991	12
0	7323	168624.295537432361	13
0	7325	168867.035256492086	12
0	7329	169092.720644436068	11
0	7338	169187.482833081201	12
0	7340	169222.32677122403	11
0	7358	169466.435138935336	10
0	7363	169491.411200910098	9
0	7367	169546.462905990826	10
0	7369	169602.184046084868	11
0	7371	169637.640963459023	12
0	7377	169865.285509380979	11
0	7385	169926.506645047677	12
0	7396	170066.275224945363	13
0	7398	170088.187790962744	14
0	7405	170247.300531644782	15
0	7411	170452.716541941332	16
0	7417	170579.523690253712	17
0	7435	170832.829002662785	16
0	7440	170877.843089455852	15
0	7445	170933.835021186156	14
0	7462	171331.728084742295	15
0	7464	171362.015433318907	16
0	7466	171460.330080779383	15
0	7470	171678.389518446512	14
0	7479	172064.786986979411	15
0	7490	172177.670132658252	16
0	7492	172291.411065946801	15
0	7505	172636.750135699401	14
0	7514	172971.563785857744	13
0	7522	173046.721976985858	14
0	7533	173172.80260044805	15
0	7539	173355.066072348042	14
0	7544	173442.763001880832	13
0	7548	173611.102330932536	14
0	7563	174004.966850768312	13
0	7568	174008.129685810339	14
0	7578	174203.988152610252	13
0	7603	174897.35376249928	12
0	7620	175278.271392949033	13
0	7622	175315.63599464294	14
0	7624	175323.845155573673	13
0	7629	175372.463981234849	14
0	7631	175412.703164260372	13
0	7636	175498.528513329218	12
0	7641	175521.375837994234	13
0	7647	175580.971842351872	14
0	7653	175822.625598539138	15
0	7659	176038.372025824375	14
0	7663	176093.182441609095	13
0	7667	176099.449804592286	14
0	7683	176692.034272012062	15
0	7685	176710.814435336276	14
0	7698	177041.933792158253	13
0	7703	177097.277650030445	12
0	7719	177370.694627275855	13
0	7726	177801.501892510339	12
0	7739	177979.050782023866	13
0	7749	178334.413031823225	12
0	7762	178442.314066233229	11
0	7767	178505.949253294154	10
0	7775	178747.926943430793	9
0	7779	179267.484889890536	8
0	7802	179542.183436911442	9
0	7816	179958.937332592197	8
0	7829	180140.939623581362	7
0	7838	180281.786754649211	8
0	7840	180343.580551672264	7
0	7845	180354.464271613145	8
0	7855	180536.133901570522	9
0	7865	181042.855951919367	10
0	7867	181072.68070843	9
0	7888	181652.218233275075	10
0	7890	181654.00985516537	9
0	7899	181814.538502263022	8
0	7904	181828.152713741644	7
0	7917	181959.063406819929	8
0	7919	182161.975058259559	7
0	7924	182245.998851622923	6
0	7933	182627.981572985692	7
0	7943	182749.893612190373	6
0	7948	183018.934384600245	7
0	7950	183044.566222781432	6
0	7971	183493.597189671583	5
0	7976	183524.499316777571	4
0	7980	183663.971723650556	5
0	8003	183975.884508172167	4
0	8012	184159.082680179264	5
0	8014	184379.818877986855	4
0	8035	184796.729099791034	3
0	8040	184799.394218905753	4