version 2
run Iteration-17-20200521-09:51:53-67724
attr configname Iteration
attr datetime 20200521-09:51:53
attr experiment Iteration
attr inifile omnetpp.ini
attr iterationvars "$i=2, $j=5, $0=15-(2+5)"
attr iterationvarsf i=2,j=5,15-(2+5)-
attr measurement "$i=2, $j=5, $0=15-(2+5)"
attr network Network
attr processid 67724
attr repetition 0
attr replication #0
attr resultdir results
attr runnumber 17
attr seedset 17
itervar i 2
itervar j 5
param **.resourcePool.amount 2
param **.resourcePool1.amount 5
param **.resourcePool2.amount 15-(2+5)
param **.source.interArrivalTime exponential(6min)
param **.delay.delay uniform(4min,28min)
param **.delay1.delay uniform(10min,28min)
param **.delay2.delay uniform(4min,16min)
param **.allocate.resourceModuleName "\"Network.resourcePool\""
param **.allocate1.resourceModuleName "\"Network.resourcePool1\""
param **.allocate2.resourceModuleName "\"Network.resourcePool2\""
param **.deallocate.resourceModuleName "\"Network.resourcePool\""
param **.deallocate1.resourceModuleName "\"Network.resourcePool1\""
param **.deallocate2.resourceModuleName "\"Network.resourcePool2\""
param **.router.randomGateIndex "uniform(0, 1) > 0.2 ? 0 : 1"

vector 0 Network.allocate queueLength:vector ETV
attr interpolationmode sample-hold
attr title "queue length, vector"
vector 1 Network.allocate1 queueLength:vector ETV
attr interpolationmode sample-hold
attr title "queue length, vector"
vector 2 Network.allocate2 queueLength:vector ETV
attr interpolationmode sample-hold
attr title "queue length, vector"
vector 3 Network.sinkStat lifeTime:vector ETV
attr interpolationmode none
attr title "lifetime of arrived jobs, vector"
attr unit s
vector 4 Network.sink lifeTime:vector ETV
attr interpolationmode none
attr title "lifetime of arrived jobs, vector"
attr unit s
0	0	0	0
0	15	892.590719447803	1
0	17	1129.71459472721	0
0	22	1449.292869908053	1
0	24	1488.422193796207	2
0	26	1853.746039015342	3
0	28	1942.961893831282	4
0	30	1960.436078814618	3
0	35	2251.512739893716	4
0	37	2269.099830198511	3
0	62	2959.1182032457	4
0	64	2971.687860283923	5
0	66	3024.3514232295	4
0	71	3107.287041788749	3
0	84	3574.690461117252	2
0	93	3726.944718417439	3
0	99	3964.809464676421	4
0	101	3986.141804005428	3
0	106	4049.386427087538	2
0	111	4084.568118783915	3
0	117	4227.760218750163	2
0	122	4352.317655100847	3
0	128	4493.860734275622	4
0	130	4534.658592897876	3
0	135	4680.528655589712	4
0	137	4739.419687584804	5
0	151	4977.17623030936	4
0	156	4981.880241665467	3
0	165	5133.268156681598	4
0	175	5476.063348646685	3
0	188	5774.072575038463	4
0	198	5932.616673871926	5
0	216	6309.271142912858	4
0	225	6339.188999766555	5
0	231	6599.670349988564	4
0	240	6913.701850542742	5
0	242	6937.559723477288	4
0	247	7432.278215742249	5
0	261	7888.975675144042	6
0	263	7936.816872676664	5
0	272	8126.81549433194	4
0	285	8483.679015992039	3
0	290	8676.26154502026	4
0	296	8686.9141283607	5
0	298	8865.081884122565	6
0	300	8987.516946624704	7
0	302	9194.489345113311	8
0	308	9485.658888887092	7
0	321	9917.877883260899	6
0	334	10217.601293321177	5
0	339	10289.666424366669	6
0	345	10837.025017622147	7
0	347	10993.526117611155	6
0	352	11088.534809246164	7
0	354	11167.718020705355	8
0	356	11259.768732465814	9
0	362	11291.089710737192	10
0	368	11486.582700369709	9
0	381	11749.185217751019	8
0	390	12066.168004033387	9
0	396	12462.193905827195	10
0	406	12607.772643710897	9
0	411	12641.96872555918	10
0	413	12775.822974609946	11
0	423	13095.379453060978	10
0	428	13188.161467644796	9
0	433	13454.518561085516	8
0	442	13654.884533830169	9
0	444	13922.426181955634	10
0	454	14400.861941683516	9
0	463	14475.928550399468	10
0	469	14577.279668085853	11
0	479	14930.794081037694	10
0	488	15045.206117586999	11
0	494	15285.974348047584	12
0	504	15654.644693547764	13
0	506	15712.548385939596	14
0	508	16019.412641030399	15
0	514	16021.808561864719	14
0	519	16358.277803016607	15
0	521	16582.90769202804	14
0	530	17036.083559379816	15
0	532	17080.10759584181	14
0	541	17199.560117878776	15
0	547	17293.442338539279	16
0	553	17518.127650305341	17
0	555	17643.455757928843	16
0	564	17785.844959274267	17
0	566	17833.774622922592	18
0	572	18458.415817838151	19
0	574	18519.441743041798	18
0	583	18910.300182906742	17
0	588	18950.323497832386	18
0	590	18956.364427018389	17
0	599	19386.924786153659	16
0	608	19625.08052634105	17
0	610	19891.475864333863	16
0	623	19915.688442890999	17
0	629	20074.049986149594	16
0	646	20734.983373250051	17
0	648	20881.657516157086	16
0	653	21024.1173581364	15
0	662	21123.618494281277	16
0	672	21512.678468440843	17
0	678	21577.048813434877	18
0	680	21710.078476733347	19
0	682	21728.504250097903	20
0	696	22249.186332991178	19
0	701	22629.12650022231	18
0	714	22952.541217264109	19
0	716	22966.102354295337	20
0	718	23267.862654572184	19
0	735	23893.215820114538	18
0	752	24716.942008743736	19
0	754	24786.828267520125	18
0	767	25451.475228849277	17
0	772	25669.397111858743	18
0	786	26094.010525403376	17
0	791	26674.792634505257	16
0	796	26799.737719995226	17
0	802	26903.081204240973	16
0	811	27231.478809536487	17
0	817	27327.925721372802	18
0	819	27658.247274931108	19
0	821	27667.825343224349	20
0	823	27828.831100042206	21
0	829	27894.255948707412	22
0	835	27908.784645642564	21
0	844	28014.862450977619	20
0	849	28187.734658195752	21
0	859	28752.510095380827	22
0	861	28786.936042453573	21
0	882	29398.983191495593	20
0	887	29467.197709739102	21
0	889	29923.211830415704	22
0	895	30107.460264782832	21
0	904	30367.245885057897	22
0	906	30545.019264672993	23
0	908	30575.122057033535	22
0	917	30806.335503976272	21
0	926	31030.067485089336	22
0	940	32051.790023056623	21
0	945	32083.760738458513	22
0	951	32281.278083059417	21
0	960	32414.092151926725	22
0	962	32606.575638966384	23
0	968	32819.603026654052	22
0	973	33001.764646602627	21
0	1002	34016.325473842975	20
0	1015	34164.774777270485	21
0	1017	34253.908568728196	20
0	1022	34415.468101129486	21
0	1024	34551.393923332747	20
0	1029	34742.011148151564	21
0	1031	35013.924055956891	22
0	1033	35068.763813084962	23
0	1035	35167.246805896815	22
0	1040	35377.727284538972	21
0	1053	35737.29070355625	22
0	1055	35748.356209206807	21
0	1068	36035.263881421392	22
0	1082	36226.613732559439	21
0	1087	36256.255554403591	20
0	1092	36358.696500303853	21
0	1102	36452.145038542904	22
0	1116	37084.73013322376	21
0	1121	37218.924167593554	22
0	1127	37310.444694032725	21
0	1132	37367.698472386747	22
0	1134	37481.646406224435	23
0	1140	37717.968074923214	22
0	1145	37805.338386032212	21
0	1166	38399.124890734945	22
0	1168	38646.724177195885	23
0	1170	38680.768374716006	24
0	1180	38996.602441986856	23
0	1185	39020.107474881637	22
0	1206	39503.019934814828	23
0	1212	39774.263667960844	24
0	1214	39785.821987299082	23
0	1219	39826.564525627196	24
0	1221	40178.355844351876	23
0	1226	40339.054405766676	24
0	1232	40424.982102583575	23
0	1241	40542.250728114634	24
0	1251	40803.546547284004	25
0	1253	41001.202031742263	24
0	1262	41149.418255457187	25
0	1264	41283.145683182991	26
0	1266	41320.829938198853	25
0	1271	41365.991298716583	26
0	1273	41405.464109426198	25
0	1278	41444.959391249402	26
0	1280	41468.166071584461	27
0	1290	41748.62392223854	28
0	1296	42406.747547434067	29
0	1298	42419.119348973526	30
0	1308	42586.834771210331	31
0	1310	42644.873053563593	30
0	1319	42773.20386111312	29
0	1344	43523.274491565398	30
0	1354	43993.017556240617	29
0	1359	44061.432233336795	28
0	1368	44443.429311213481	29
0	1370	44748.865829009425	30
0	1372	44751.709988249301	29
0	1377	44828.632115483161	30
0	1379	44874.468946452666	29
0	1384	44982.368239884944	30
0	1386	45057.868357358336	29
0	1391	45194.636907637308	30
0	1393	45219.563655546317	31
0	1403	45739.072258980992	32
0	1409	45840.53384252925	33
0	1411	45896.049953857827	34
0	1417	46104.115466882891	35
0	1419	46222.396621699859	34
0	1424	46247.63697227633	33
0	1429	46254.78079671424	34
0	1443	46603.201630111267	33
0	1452	46820.936507901013	32
0	1457	46884.709660242203	33
0	1463	47125.438262617149	34
0	1473	47392.651468650422	35
0	1475	47528.628530237307	34
0	1484	47693.309509169153	35
0	1498	48030.153603127063	34
0	1507	48251.962621207764	33
0	1524	48933.411039623254	34
0	1526	49254.715529961348	33
0	1535	49559.98976511429	34
0	1541	49675.961799617341	33
0	1550	50068.867499550641	32
0	1555	50069.588690414426	33
0	1557	50160.28273914054	34
0	1567	50731.317262757054	33
0	1580	50961.513546894369	34
0	1582	51051.68677361852	33
0	1587	51070.599070847658	34
0	1597	51471.83795276825	35
0	1599	51484.55923045224	34
0	1604	51536.647413183966	35
0	1610	51906.077425580369	36
0	1612	51946.739645521572	35
0	1617	52012.563242607263	36
0	1619	52174.826581246362	37
0	1621	52196.798456704081	36
0	1634	52426.273590340216	37
0	1652	52952.518700973749	38
0	1658	53305.170077999891	37
0	1663	53489.309013927315	38
0	1665	53559.517654139033	37
0	1686	53975.186054866009	38
0	1700	54805.478867772387	39
0	1702	54892.962301879005	40
0	1704	54929.409531859518	39
0	1709	54934.614536273709	38
0	1714	55101.249016214453	39
0	1716	55398.229453931978	38
0	1725	55482.374684435432	39
0	1727	55505.436839447622	40
0	1729	55545.653742512462	41
0	1731	55554.243625683547	40
0	1744	56391.528362577618	39
0	1765	56888.784681251977	40
0	1767	56934.179957989087	39
0	1776	57065.87150611162	40
0	1778	57199.660422549106	41
0	1780	57359.749595630519	42
0	1782	57511.09208319622	43
0	1784	57584.730794785381	42
0	1801	58129.318035501471	41
0	1806	58622.461859045215	42
0	1808	58640.323949923576	41
0	1813	58693.555679358185	42
0	1831	59473.965715227486	41
0	1840	59593.857438498247	42
0	1842	59637.132714162996	41
0	1851	59690.841937335904	42
0	1853	59752.729408618336	43
0	1855	59880.116183629097	42
0	1860	59965.620605909518	43
0	1862	60137.260091334043	44
0	1864	60184.944910446418	45
0	1866	60268.426789031162	46
0	1876	60430.151409713389	45
0	1885	60697.629984600307	44
0	1890	60700.492674663937	45
0	1896	60986.672901460865	46
0	1898	61117.786671991925	47
0	1904	61288.509062338105	46
0	1917	61530.690981033674	45
0	1922	61583.355921189537	46
0	1928	61652.196590182181	47
0	1942	61812.685049797948	48
0	1944	62061.546199759975	49
0	1946	62085.238534269692	48
0	1955	62207.504282291539	49
0	1957	62274.856973695985	48
0	1978	63125.050363382819	49
0	1980	63155.482553367873	50
0	1986	63364.791801331402	49
0	1991	63365.68244924542	50
0	1993	63486.276141736141	49
0	2002	63845.377954314879	48
0	2007	63897.706846770571	49
0	2009	64022.04632146454	48
0	2022	64353.544024411074	47
0	2035	64686.857795772736	48
0	2037	64973.891449067878	49
0	2059	65504.887388062018	50
0	2061	65596.292531100871	49
0	2074	65823.939436729315	50
0	2076	65872.910474050275	49
0	2081	66087.083409874694	50
0	2083	66114.660880711878	51
0	2089	66378.622137868375	52
0	2095	66610.570608013926	53
0	2101	67040.766774709753	52
0	2106	67159.574567160838	53
0	2108	67217.543197108271	52
0	2113	67455.155389420968	53
0	2119	67592.037805316857	54
0	2121	67614.590568873517	53
0	2126	67671.179010713509	54
0	2128	67785.034189722624	55
0	2134	67860.812180563255	56
0	2140	68167.775238288405	55
0	2145	68278.094809539829	56
0	2151	68441.945074289208	57
0	2161	68767.5850574391	58
0	2163	68885.054693590335	57
0	2168	68978.170519342485	56
0	2177	69237.325682528287	57
0	2179	69386.599476022485	56
0	2200	69886.487113173191	57
0	2206	70059.718877594403	56
0	2211	70133.018276450922	57
0	2213	70171.254260294888	58
0	2219	70308.82096572018	57
0	2224	70430.980074745084	58
0	2230	70913.205499384037	57
0	2239	71035.369353194936	58
0	2245	71170.572690872315	57
0	2250	71230.187383585583	58
0	2252	71257.180643859736	57
0	2261	71410.954239557577	58
0	2263	71446.892543569625	59
0	2265	71502.507419101434	60
0	2279	72124.798302400524	61
0	2293	72314.467715579502	60
0	2298	72454.392206394446	61
0	2300	72464.561074996738	62
0	2302	72478.9642748343	63
0	2308	72605.451509053215	64
0	2310	72779.877782633368	63
0	2319	73250.781048308544	62
0	2324	73253.333659453157	61
0	2333	73464.74853678771	62
0	2335	73469.660551663225	63
0	2337	73520.531244813308	64
0	2343	73701.088579218321	63
0	2348	73711.640282964173	62
0	2353	73764.987647149442	63
0	2363	74020.005173567169	62
0	2368	74178.616954442578	63
0	2370	74306.101714256637	62
0	2383	74613.881235072501	63
0	2389	74658.517970326774	62
0	2394	74730.729071366598	63
0	2396	74746.476048512223	62
0	2409	74922.047679652593	63
0	2411	74992.18618720346	62
0	2440	75548.52039306932	61
0	2449	75742.880678626736	62
0	2467	76271.211904549939	63
0	2473	76356.317320225599	62
0	2478	76362.962679262691	61
0	2511	77749.833937953644	60
0	2516	77784.68224944717	59
0	2525	78503.984050934453	60
0	2531	78806.171437289963	61
0	2533	78822.229105928861	62
0	2539	78988.263616574599	63
0	2545	79112.384010797206	62
0	2550	79112.635830785566	61
0	2555	79364.941779469911	60
0	2568	79795.143339741462	59
0	2573	79851.12444231148	60
0	2575	79949.938175149766	61
0	2577	80001.736467575494	60
0	2582	80112.835106460112	61
0	2584	80258.095962189776	62
0	2586	80349.559256015981	63
0	2592	80595.97245480388	64
0	2594	80625.763982464538	65
0	2604	80858.398751596326	66
0	2606	81020.311551257759	67
0	2616	81208.522811453277	66
0	2625	81609.569831250075	65
0	2638	81898.831137414509	64
0	2647	82302.541457719749	65
0	2649	82406.819130165342	64
0	2662	82568.804245257354	65
0	2668	82785.325876283878	64
0	2677	83182.690186222855	63
0	2682	83212.861301429501	64
0	2684	83468.398887284176	65
0	2690	83524.779651160771	64
0	2707	84153.940737081531	63
0	2716	84263.080962481069	64
0	2718	84359.629993024701	63
0	2743	85115.323840882778	64
0	2745	85124.599547931184	65
0	2751	85307.417835576299	64
0	2756	85356.24017282566	65
0	2762	85466.357600237662	64
0	2767	85559.842894259259	65
0	2769	85566.001243554843	66
0	2771	85787.737964163953	65
0	2776	85792.822729400294	66
0	2778	85797.791084235369	67
0	2792	86165.828548413936	68
0	2794	86307.681258139461	69
0	2796	86582.459002468222	68
0	2809	86926.134521497253	67
0	2814	87001.133479848884	68
0	2820	87198.935998675799	69
0	2822	87208.831019956106	68
0	2831	87461.385834291415	69
0	2837	87765.016604190605	70
0	2839	87919.798994904224	69
0	2848	88001.075807373055	70
0	2854	88618.259930287999	71
0	2864	88755.036957557732	70
0	2869	88762.811094282035	69
0	2878	88815.036406189791	70
0	2884	88982.253764374349	71
0	2886	89084.245532547895	70
0	2891	89275.678569735194	71
0	2909	89671.015928563266	72
0	2919	90415.347387227649	71
0	2924	90420.665646998052	70
0	2929	90523.653541425788	71
0	2931	90627.716831349471	72
0	2933	90629.366655738026	73
0	2939	90674.632136109704	72
0	2944	90909.49230028899	73
0	2954	91337.385915302202	74
0	2956	91414.159691627522	75
0	2966	91596.205749215881	76
0	2972	91744.006008771265	77
0	2974	91756.543973680073	76
0	2979	91838.188064453964	75
0	2992	92106.061900526406	76
0	2994	92149.191456717757	77
0	2996	92252.917944511239	76
0	3005	92716.124142925674	75
0	3014	93012.543522454177	76
0	3020	93048.429744971756	75
0	3029	93258.60268496256	76
0	3035	93516.418382289607	77
0	3037	93706.979534465005	78
0	3039	93791.699273733194	79
0	3041	94055.994306264285	78
0	3046	94058.058437050612	79
0	3056	94166.885787405748	80
0	3058	94280.240148674184	79
0	3063	94444.055183678715	80
0	3065	94518.726572698429	81
0	3075	94664.596296918067	82
0	3077	94667.950812188748	81
0	3082	94716.963799976436	82
0	3084	95414.176834438728	83
0	3102	95629.592142386202	82
0	3107	95705.257507036859	81
0	3112	95807.916658652489	82
0	3122	96042.574447220755	83
0	3128	96212.568899875805	84
0	3130	96301.895663260199	85
0	3132	96377.603518200878	84
0	3137	96545.488076053091	85
0	3147	96925.831290143961	84
0	3156	97318.051851300363	83
0	3185	98584.235701184208	82
0	3190	98728.484922133514	83
0	3192	98818.669833598499	82
0	3197	98971.456117503002	83
0	3199	99001.249394612282	84
0	3201	99110.810870436792	83
0	3210	99326.271680885526	84
0	3212	99580.032389606769	83
0	3217	99673.275785045119	84
0	3219	99745.082950083169	85
0	3221	99796.616065821139	86
0	3223	99829.359755303377	87
0	3229	100111.777711195712	86
0	3242	100317.474525349836	87
0	3256	100658.043856732509	88
0	3258	100664.283384005959	87
0	3275	101108.996774065728	86
0	3280	101127.789364067678	85
0	3285	101331.380970382499	86
0	3295	101671.016502623175	87
0	3301	102029.883213336999	86
0	3310	102241.459803811468	87
0	3312	102277.558904049759	86
0	3317	102396.134321624323	87
0	3327	102683.017158320619	88
0	3329	102744.552643852193	89
0	3339	102975.893167501156	88
0	3356	103670.433904007312	89
0	3358	103706.325509841973	88
0	3363	103712.773608787079	89
0	3365	103808.198187513929	90
0	3371	104032.810002846484	89
0	3376	104253.294285982863	90
0	3378	104292.589093914096	89
0	3383	104307.874119827468	90
0	3393	104898.692791010672	89
0	3398	104930.288719030623	90
0	3404	105349.058571971254	91
0	3406	105433.667176646952	90
0	3419	105753.807805931627	91
0	3425	106070.268363488678	90
0	3446	106541.296364347448	91
0	3448	106560.969192716712	90
0	3457	106750.556177553137	91
0	3459	106832.431678568784	90
0	3464	106943.294505025679	89
0	3469	107409.035702405337	88
0	3474	107473.371821525926	87
0	3491	107677.876578993566	88
0	3493	107811.767072218715	89
0	3495	107908.355376170703	90
0	3505	108165.468800026411	89
0	3510	108172.397019106676	90
0	3524	108502.179217536582	91
0	3534	108927.35436308059	92
0	3536	109022.248094437484	91
0	3541	109081.117753704175	92
0	3559	109771.503376770252	91
0	3572	110404.75991925395	90
0	3577	110813.342267268131	91
0	3579	110835.175427367752	90
0	3588	111081.903559921151	89
0	3593	111226.752484250301	88
0	3602	111736.716913753974	89
0	3608	111753.807714027612	90
0	3610	111812.814341185477	91
0	3620	112001.959865225321	90
0	3629	112389.772407994235	91
0	3639	112649.409265638523	92
0	3645	112676.323876264924	91
0	3650	112741.737875684697	92
0	3652	112955.812266303068	91
0	3657	113052.980352546502	92
0	3667	113165.640001879731	93
0	3669	113245.989379260276	94
0	3679	113699.617068130011	93
0	3684	113811.920805108759	94
0	3686	113819.137141869743	95
0	3688	113833.848209297378	96
0	3694	114117.88118089294	97
0	3696	114144.689829923163	98
0	3702	114270.730269431826	99
0	3704	114487.005343152808	100
0	3706	114570.745767822331	99
0	3711	114593.320929006627	100
0	3717	114913.892814922566	99
0	3726	115088.733705472351	100
0	3728	115090.784780113951	101
0	3734	115255.698052305216	100
0	3739	115280.7900396907	101
0	3745	115472.253711653715	100
0	3750	115592.600904273806	101
0	3752	115611.047956066177	102
0	3762	116177.069269435154	103
0	3772	116407.22458475286	104
0	3774	116563.421610142524	103
0	3779	116695.35156605033	104
0	3785	117047.143334282404	103
0	3798	117225.822369583859	104
0	3800	117398.376335522002	103
0	3805	117478.461903406134	104
0	3811	117807.617116857126	105
0	3813	117968.181049014506	106
0	3819	118024.097853392522	107
0	3821	118045.036081220443	106
0	3826	118059.346341101295	105
0	3839	118531.330770862095	106
0	3849	119137.786202175249	107
0	3859	119413.587225708599	106
0	3864	119697.935679239995	105
0	3873	119747.629845484717	106
0	3883	120199.126100842761	107
0	3889	120631.484357909614	108
0	3891	120662.763322527581	109
0	3897	120765.094744620688	108
0	3902	120822.562975668523	109
0	3904	120940.394194904203	108
0	3913	121230.655493567008	109
0	3915	121326.420555334026	108
0	3920	121644.566396777489	109
0	3922	121658.227364649001	110
0	3932	121844.419349539513	109
0	3937	122134.36832701958	108
0	3942	122414.350035000081	107
0	3951	122630.870349539288	106
0	3964	122822.87085026197	107
0	3970	123100.898267697031	106
0	3975	123267.414576939707	107
0	3993	123623.57180002372	108
0	4007	123900.335708186926	109
0	4009	123901.614423247484	110
0	4011	123929.487648850151	109
0	4016	124106.349706067324	110
0	4018	124199.683559287981	111
0	4024	124409.39502089792	110
0	4033	124563.60593111641	111
0	4039	124860.340555109213	112
0	4045	125076.446001773544	111
0	4054	125155.303559932346	110
0	4063	125912.666890070878	111
0	4065	125946.755928914482	110
0	4078	126499.953895045288	109
0	4087	126530.475604140522	110
0	4097	127177.115971051508	111
0	4103	127417.754695485765	110
0	4112	127771.54840176549	111
0	4114	127774.720975367196	110
0	4123	127888.556431629842	111
0	4129	128373.638200692219	112
0	4135	128579.271451975638	111
0	4148	128820.047699693078	110
0	4153	128954.998750020134	111
0	4155	128986.266092231341	110
0	4160	129185.367943180123	111
0	4170	129611.018239690443	112
0	4176	129960.730491077371	111
0	4181	130218.476869943971	110
0	4186	130322.04321449797	111
0	4192	130359.997452783547	112
0	4198	130992.928576327558	113
0	4200	131012.769209315844	112
0	4209	131317.839490308767	113
0	4219	131505.159181926888	114
0	4225	131728.786138130267	115
0	4227	131792.178590578802	114
0	4236	131841.229605186219	113
0	4245	132100.332635413344	112
0	4262	132758.478499075242	111
0	4267	132769.741655243007	112
0	4269	133040.519509806213	113
0	4283	133406.375854919422	114
0	4285	133432.234676736827	113
0	4290	133538.883242868683	114
0	4296	133609.815573034681	115
0	4302	133809.006583239372	114
0	4311	134008.247938171244	115
0	4317	134400.12068962849	114
0	4326	134551.606547621848	115
0	4332	134818.74147640693	116
0	4338	135111.220085065539	117
0	4340	135233.588823597367	116
0	4353	135454.278828745552	115
0	4358	135536.557885315602	116
0	4364	136127.638756376023	117
0	4366	136128.730132153102	116
0	4375	136436.209937367077	115
0	4380	136485.937345388274	116
0	4382	136553.546041033023	117
0	4392	137056.731143912145	116
0	4397	137218.023383746816	117
0	4399	137277.460286011745	118
0	4401	137348.862509375283	117
0	4410	137467.134190095249	118
0	4416	137760.387829822418	119
0	4422	137888.895951393481	118
0	4427	137939.680142494979	119
0	4437	138102.294950468311	118
0	4442	138478.399218601951	117
0	4471	139214.803593191739	116
0	4476	139365.246672226841	117
0	4486	139761.780065988967	116
0	4499	140214.514396918783	115
0	4504	140320.88018950448	116
0	4506	140529.61614710663	117
0	4512	140765.836326092573	118
0	4514	140796.03388383561	117
0	4519	140846.344509919296	118
0	4525	140943.806589079866	117
0	4534	141175.502366637657	118
0	4540	141248.469424583537	119
0	4550	141620.469350587066	118
0	4555	141638.918825148704	119
0	4565	141982.825998642162	120
0	4571	142217.817108763227	119
0	4580	142249.83726486691	120
0	4582	142537.659216793447	121
0	4588	142742.813627268608	120
0	4593	142792.515678957483	121
0	4603	143136.716105039652	120
0	4608	143207.825753869571	121
0	4610	143229.823410230577	122
0	4616	143300.224680250356	121
0	4621	143348.599380331039	122
0	4623	143382.070351353628	123
0	4629	143543.062306691679	124
0	4631	143651.843825835224	123
0	4636	143899.728204032252	122
0	4641	143971.976763203013	123
0	4651	144343.703993778165	122
0	4664	144605.293136541377	123
0	4670	144706.622342673908	122
0	4675	144815.752203532315	123
0	4677	144892.287526410959	124
0	4687	145279.329474064137	125
0	4693	145575.945117169266	126
0	4695	145686.411302259038	125
0	4708	145846.197468149896	124
0	4717	146219.509961757989	125
0	4723	146454.254668797787	124
0	4736	146662.873686311613	123
0	4753	147399.484631104241	122
0	4758	147526.075026407516	123
0	4760	147623.126768658819	124
0	4762	147649.320104713973	123
0	4779	147920.615075812979	124
0	4781	148197.508242465334	125
0	4783	148239.016722144325	126
0	4785	148500.719098111104	127
0	4795	148749.532320333491	126
0	4800	148818.710236656901	125
0	4805	148845.439177300846	126
0	4811	148857.214352090163	127
0	4813	148909.700930508709	128
0	4815	149008.808140248787	129
0	4821	149265.981377075501	130
0	4827	149410.022324280094	131
0	4833	149550.311388331887	130
0	4838	149745.380046835016	129
0	4847	150129.174608323213	128
0	4860	150385.620331499216	127
0	4865	150499.615777112192	128
0	4867	150712.467380947981	129
0	4881	151248.34139837123	128
0	4886	151263.291894923143	129
0	4888	151268.405522730596	130
0	4890	151355.372183424124	131
0	4896	151732.410558009194	132
0	4898	151844.192090440032	131
0	4919	152375.051101520858	132
0	4921	152432.963002298414	133
0	4931	152781.838487854074	132
0	4936	152975.28875007802	131
0	4941	153133.632018474709	130
0	4946	153277.912831464107	131
0	4952	153312.765330059096	132
0	4962	153698.970042034795	133
0	4964	154187.628750647841	132
0	4977	154471.786113327216	131
0	4990	155241.947902759384	130
0	4995	155265.68105306053	129
0	5012	155825.98919492449	130
0	5026	156244.003991281461	129
0	5043	156546.703573730747	130
0	5045	156592.381772431968	129
0	5050	156661.290596008172	130
0	5052	156662.488107007895	131
0	5054	156838.00903218038	130
0	5063	157119.057571552763	131
0	5065	157122.321400321498	132
0	5067	157310.208947284178	133
0	5069	157471.264031301676	132
0	5078	157798.057732714187	131
0	5091	158080.714079408844	132
0	5105	158474.152463136088	131
0	5110	158537.072443175553	130
0	5115	158666.585468860833	131
0	5117	158686.552704416005	132
0	5139	159571.206041936204	133
0	5145	160014.714135895907	132
0	5150	160122.65989439733	131
0	5155	160193.617285074582	132
0	5161	160422.298150983151	133
0	5163	160569.227436606113	134
0	5165	160635.647675390437	135
0	5167	160796.623295938444	134
0	5172	160856.032830567239	135
0	5178	160896.138624656438	134
0	5183	161186.382144176868	135
0	5189	161586.518631637768	136
0	5195	161606.101363222539	135
0	5204	161765.847996563531	136
0	5206	161768.010501323116	135
0	5227	162519.680916625499	134
0	5236	162899.416952307374	135
0	5238	163020.109733558316	136
0	5248	163204.569209600905	137
0	5250	163322.790099924279	136
0	5255	163507.442632506792	137
0	5261	163689.402650578902	138
0	5267	164057.819963428616	137
0	5280	164296.93093279564	138
0	5282	164304.75894517896	139
0	5284	164336.489644046366	138
0	5289	164393.311095369829	137
0	5294	164845.39434633841	138
0	5296	164953.230251963675	137
0	5305	165049.662974385394	136
0	5314	165197.454505856574	135
0	5319	165310.864758017079	136
0	5325	165600.431283355935	137
0	5327	165604.638817149134	138
0	5345	166146.686377210392	137
0	5350	166162.635739068926	136
0	5355	166176.632254638044	137
0	5357	166516.946867228082	138
0	5359	166547.659692085571	139
0	5361	166646.176665098984	140
0	5371	166748.494406343408	141
0	5381	166845.411507999276	142
0	5391	167028.368864385583	143
0	5393	167293.617703525199	142
0	5398	167329.449844952167	141
0	5407	167504.475482543339	142
0	5413	167718.665575390997	143
0	5415	167729.145581642155	144
0	5421	167846.51578506626	143
0	5426	167953.621424767614	142
0	5443	168637.424591111937	143
0	5449	168766.824311224593	142
0	5458	168959.091886423486	143
0	5464	169077.257692014648	142
0	5469	169110.783288495867	143
0	5471	169138.461110216591	144
0	5473	169217.774744788531	145
0	5487	169462.407470663859	144
0	5492	169483.101847242058	143
0	5497	169992.452977196793	144
0	5499	170019.979009491025	145
0	5509	170393.743875171483	144
0	5518	170561.333862955584	145
0	5524	170643.919311290126	146
0	5530	170857.860445711256	145
0	5539	170930.856131037547	144
0	5548	171075.073743026414	145
0	5550	171121.072260828557	146
0	5552	171176.005818467082	145
0	5561	171532.716220474142	146
0	5567	171735.639290485055	147
0	5569	171753.327129374367	148
0	5571	171793.626881373896	147
0	5580	171915.615668739618	146
0	5593	172054.477298030772	147
0	5595	172084.53383355478	148
0	5597	172102.307848710295	149
0	5599	172258.90270471986	150
0	5601	172262.244310252747	151
0	5615	172500.051896555199	150
0	5628	173201.956422958018	149
0	5657	173886.103625392391	148
0	5662	174150.548167249038	147
0	5667	174330.348974757372	148
0	5669	174490.473850812258	147
0	5674	174543.061245786872	148
0	5680	174704.597667476013	147
0	5685	174768.712043181851	148
0	5687	174849.225087994271	149
0	5689	175285.787395458164	148
0	5702	175549.891501798559	149
0	5704	175558.221448624268	150
0	5706	175573.195763946369	151
0	5708	175652.476288510337	150
0	5721	175952.618614864612	151
0	5727	176026.660466174122	152
0	5733	176175.525079639922	153
0	5735	176234.113510567448	154
0	5753	176905.852102508619	153
0	5758	176920.359257902446	152
0	5767	177077.48481310897	153
0	5769	177113.043764856773	154
0	5771	177174.808050650599	153
0	5784	178195.369642885677	154
0	5786	178264.813642671182	153
0	5799	178424.975360962989	152
0	5804	178473.278473423606	153
0	5806	178512.20732154749	154
0	5808	178540.624938148865	155
0	5814	178625.423737372741	156
0	5816	178696.524821513424	157
0	5830	179533.885232102407	158
0	5836	179609.908064661398	157
0	5841	179794.194366108122	156
0	5850	179960.715569284194	157
0	5852	180149.976554376378	158
0	5854	180398.845784075859	159
0	5864	180659.753555340543	158
0	5869	180704.227732178537	159
0	5871	181016.079106239453	158
0	5880	181328.073699643686	157
0	5889	181439.024202484133	156
0	5894	181531.306677368332	157
0	5900	181720.315011361431	158
0	5914	182285.94747794469	159
0	5916	182365.278768944981	158
0	5921	182459.798923564926	157
0	5930	182579.156171360047	158
0	5932	182711.121859285827	159
0	5942	182929.245450404793	160
0	5944	182994.551885161045	159
0	5949	183088.059379876386	160
0	5955	183306.259875775378	161
0	5957	183343.445372378305	160
0	5974	183803.396156023992	161
0	5984	184071.006420923377	162
0	5998	184575.979212839715	163
0	6000	184604.960085670891	162
0	6005	184644.807527048365	161
0	6010	184949.081031714116	162
0	6016	185013.734852163071	163
0	6018	185111.188765014949	162
0	6023	185411.654933263309	163
0	6025	185478.576925686533	164
0	6035	185719.147660901622	163
0	6040	185843.963265922349	164
0	6042	186128.168355109586	165
0	6048	186363.717951070173	166
0	6058	186607.258426244798	165
0	6063	186691.542401392037	166
0	6065	186780.842448496886	167
0	6075	187339.400712793545	166
0	6084	187741.429164318781	167
0	6090	187920.796970344584	168
0	6092	187940.695065392033	167
0	6097	188015.233706795688	168
0	6099	188135.297372262421	167
0	6108	188439.212496877978	168
0	6114	188671.24652722811	169
0	6116	189037.174260748402	168
0	6129	189235.123343714755	169
0	6131	189324.844892739533	170
0	6137	189484.427219625059	169
0	6150	189951.603265958157	170
0	6152	190029.373584932456	171
0	6158	190412.35222052099	172
0	6164	190560.441000370161	171
0	6169	190632.334468783206	172
0	6179	190754.94856323624	171
0	6184	190971.821154154375	172
0	6190	191318.778281041796	173
0	6192	191329.453456770126	172
0	6197	191460.971830132811	173
0	6203	191801.63269530559	172
0	6212	191825.619392340855	171