version 2
run Iteration-1-20200521-08:30:07-39796
attr configname Iteration
attr datetime 20200521-08:30:07
attr experiment Iteration
attr inifile omnetpp.ini
attr iterationvars "$i=2, $0=10-2"
attr iterationvarsf i=2,10-2-
attr measurement "$i=2, $0=10-2"
attr network Network
attr processid 39796
attr repetition 0
attr replication #0
attr resultdir results
attr runnumber 1
attr seedset 1
itervar i 2
param **.resourcePool.amount 2
param **.resourcePool1.amount 10-2
param **.source.interArrivalTime uniform(5s,15s)
param **.delay.delay uniform(10s,70s)
param **.delay1.delay uniform(20s,40s)
param **.allocate.resourceModuleName "\"Network.resourcePool\""
param **.allocate1.resourceModuleName "\"Network.resourcePool1\""
param **.deallocate.resourceModuleName "\"Network.resourcePool\""
param **.deallocate1.resourceModuleName "\"Network.resourcePool1\""

vector 0 Network.allocate queueLength:vector ETV
attr interpolationmode sample-hold
attr title "queue length, vector"
vector 1 Network.allocate1 queueLength:vector ETV
attr interpolationmode sample-hold
attr title "queue length, vector"
vector 2 Network.sinkStat lifeTime:vector ETV
attr interpolationmode none
attr title "lifetime of arrived jobs, vector"
attr unit s
0	0	0	0
0	15	46.490967355203	1
0	17	52.958526280709	2
0	22	60.319416043349	3
0	24	62.389689341653	2
0	29	66.242801998742	3
0	31	75.121909400914	4
0	33	83.577516651712	5
0	38	95.274977055378	6
0	40	96.18453291012	5
0	45	104.242651741951	6
0	47	108.410072601401	5
0	52	117.705760924145	6
0	57	129.55795593094	7
0	62	139.803437558002	8
0	64	143.56174374465	7
0	69	146.847960047889	8
0	71	154.143732248339	9
0	73	159.417608208022	10
0	75	162.316877266858	9
0	80	169.761747280135	10
0	82	178.934795323293	11
0	84	180.16891737003	10
0	92	188.506843415088	11
0	94	194.910712784621	12
0	102	209.301990733947	13
0	104	212.544927720446	12
0	109	216.283005566801	13
0	111	223.690307009966	12
0	116	228.442710675298	13
0	118	236.576952522154	14
0	120	242.5049606245	15
0	125	254.428186793811	16
0	130	264.609712276141	17
0	132	269.248281850014	16
0	137	278.373603736981	17
0	139	291.665072843897	18
0	141	291.786001319998	17
0	146	297.515514914411	18
0	148	305.246014688163	19
0	153	311.944318914319	20
0	158	317.536750885191	21
0	160	331.149496568833	20
0	165	331.318175927735	21
0	167	342.248831095639	22
0	169	351.459907302632	23
0	171	351.562203201466	22
0	179	363.176448219455	23
0	181	373.508101112674	24
0	186	380.483610047958	25
0	188	381.381179040764	24
0	193	392.402381175197	25
0	195	398.82358250441	26
0	200	408.758957667742	25
0	205	410.688591750804	26
0	207	419.035575119779	25
0	212	419.813980201725	26
0	214	430.132871926763	25
0	219	432.315423325636	26
0	224	443.921780572273	27
0	229	456.403437103145	28
0	231	464.388390087988	29
0	233	465.757826019544	28
0	241	472.192830010317	29
0	243	477.574670924806	28
0	248	479.414075494278	29
0	250	488.893010739703	30
0	252	493.768231649884	29
0	257	498.585395987612	30
0	265	502.525896059815	29
0	270	506.521537420341	30
0	272	512.716442157981	31
0	277	519.016727849376	32
0	282	529.264721679502	33
0	284	534.458391263616	34
0	286	540.294621316717	35
0	288	552.082976622042	36
0	290	558.283961918206	35
0	295	566.251589965542	36
0	297	566.728106338997	35
0	302	573.907056541649	36
0	304	580.981648582966	35
0	309	584.750947779977	36
0	311	594.183401246556	35
0	316	594.663912991528	34
0	321	595.492123847363	35
0	329	603.101913661232	36
0	334	615.099497276826	37
0	339	622.409651491327	38
0	344	628.43299579574	39
0	346	638.767480724493	40
0	348	641.019700346515	39
0	353	647.908040585464	40
0	355	657.838636520321	41
0	357	662.056052519475	40
0	362	666.980429182297	41
0	367	679.635280254299	42
0	372	689.994244340344	43
0	374	695.447701590604	44
0	376	704.492083026563	43
0	381	707.08564807894	44
0	383	708.015988362022	43
0	388	720.009683871179	44
0	390	722.890050241259	43
0	398	730.875234259295	44
0	403	741.28311617533	45
0	405	747.657863202042	46
0	407	757.137665031481	47
0	412	763.530428465459	48
0	414	774.691673875787	47
0	419	777.451787150934	48
0	421	785.87757854024	47
0	426	786.428555489987	48
0	428	797.951544271786	49
0	436	812.226630058144	50
0	438	820.839240292557	51
0	440	828.183060220909	50
0	445	829.316898884722	51
0	447	833.135151308962	50
0	452	840.695263671228	51
0	454	854.528324585413	52
0	462	866.43037048169	53
0	464	872.443573947531	52
0	469	877.667092543566	53
0	471	886.206483461433	54
0	473	886.69503055513	53
0	478	894.695466847629	54
0	480	903.260784016461	55
0	488	917.219646170274	56
0	490	921.308537696023	55
0	495	929.747529672463	56
0	497	942.489013988526	55
0	502	944.395930164032	56
0	504	953.189165648074	55
0	509	954.377020858232	56
0	511	956.994009113405	55
0	519	960.524480557073	56
0	521	966.165153826591	57
0	526	975.664275158201	58
0	531	984.217378790495	59
0	533	995.001274864194	60
0	538	1000.490908841604	59
0	543	1009.419644342274	60
0	545	1014.21109754825	59
0	550	1016.789914101832	60
0	555	1029.505864055831	61
0	557	1034.979117088953	60
0	562	1040.242658937354	61
0	567	1052.97005037079	62
0	572	1063.0607471196	61
0	577	1064.141499535184	62
0	579	1069.986301579047	61
0	584	1074.927838854495	62
0	586	1082.236536466518	61
0	591	1088.787259806416	62
0	599	1098.493667857259	63
0	604	1111.609787933994	62
0	609	1112.579019311819	63
0	611	1122.252946165394	64
0	613	1127.411158573817	65
0	615	1134.779087807985	64
0	620	1135.101169070698	65
0	625	1147.010138262998	66
0	627	1157.523387649566	67
0	629	1167.485342163127	66
0	637	1172.496616165157	67
0	639	1181.690231848043	66
0	644	1182.221366579182	67
0	649	1196.547321227848	68
0	651	1199.91837684298	67
1	0	0	0
2	20	56.711419885979	32.569351820276
2	36	86.114893567283	76.944673582912
2	55	126.960867547896	80.469900192693
2	60	134.675542861224	96.207901183516
2	90	181.124092484825	120.80467644148
2	97	200.596117714886	147.63759143418
2	100	208.782888771967	142.54008677322
2	123	248.559819047805	173.43790964689
2	128	259.745457074606	176.16794042289
2	151	307.140415126924	211.86543807155
2	156	312.567097004504	208.32444526255
2	177	353.116433296819	235.41067237267
2	184	379.797960780562	250.24000484962
2	198	407.69149171887	267.88805416087
2	222	439.719001320191	292.8710412723
2	227	445.451471137349	291.30773888901
2	239	469.9100936763	300.14834639616
2	260	499.041954409332	320.10715908604
2	263	501.543412662577	342.12580445456
2	275	515.691676829011	320.78096404439
2	280	528.281402920839	339.77455950575
2	324	596.492929514498	387.19093878055
2	327	596.559569544625	380.27656397782
2	332	612.299889153802	383.8571784785
2	337	617.117972690613	374.61301206611
2	342	626.450023737271	389.87307121512
2	365	674.907703506761	420.47951671295
2	370	683.055121696089	418.44540941995
2	396	728.612015563995	450.23841182701
2	401	734.789865177592	443.12479233369
2	410	760.958088499029	463.44257358462
2	431	802.243360779249	496.99734609109
2	434	809.184662417975	497.24034350366
2	457	855.661448924803	538.12469803961
2	460	863.199302272406	531.88112634467
2	483	907.462422691752	565.21359159611
2	486	912.093588430435	560.6336811278
2	517	958.935374275316	595.75892605586
2	524	974.665005868302	582.2626246931
2	529	975.75784395449	602.24974284182
2	536	995.983794310596	615.50018426264
2	553	1028.086974644104	629.26339213969
2	565	1052.278687877115	641.59009612631
2	570	1055.036523584278	635.22254338255
2	594	1089.593645161951	645.67186458968
2	597	1090.166461488698	657.85103816306
2	602	1109.381931675599	652.97849457245
2	623	1144.076990273315	679.68860018533
2	635	1171.412939596923	699.22010958661
2	647	1190.932152376045	711.51807688177

