version 2
run Iteration-33-20200521-09:52:41-50756
attr configname Iteration
attr datetime 20200521-09:52:41
attr experiment Iteration
attr inifile omnetpp.ini
attr iterationvars "$i=3, $j=9, $0=15-(3+9)"
attr iterationvarsf i=3,j=9,15-(3+9)-
attr measurement "$i=3, $j=9, $0=15-(3+9)"
attr network Network
attr processid 50756
attr repetition 0
attr replication #0
attr resultdir results
attr runnumber 33
attr seedset 33
itervar i 3
itervar j 9
param **.resourcePool.amount 3
param **.resourcePool1.amount 9
param **.resourcePool2.amount 15-(3+9)
param **.source.interArrivalTime exponential(6min)
param **.delay.delay uniform(4min,28min)
param **.delay1.delay uniform(10min,28min)
param **.delay2.delay uniform(4min,16min)
param **.allocate.resourceModuleName "\"Network.resourcePool\""
param **.allocate1.resourceModuleName "\"Network.resourcePool1\""
param **.allocate2.resourceModuleName "\"Network.resourcePool2\""
param **.deallocate.resourceModuleName "\"Network.resourcePool\""
param **.deallocate1.resourceModuleName "\"Network.resourcePool1\""
param **.deallocate2.resourceModuleName "\"Network.resourcePool2\""
param **.router.randomGateIndex "uniform(0, 1) > 0.2 ? 0 : 1"

vector 0 Network.allocate queueLength:vector ETV
attr interpolationmode sample-hold
attr title "queue length, vector"
vector 1 Network.allocate1 queueLength:vector ETV
attr interpolationmode sample-hold
attr title "queue length, vector"
vector 2 Network.allocate2 queueLength:vector ETV
attr interpolationmode sample-hold
attr title "queue length, vector"
vector 3 Network.sinkStat lifeTime:vector ETV
attr interpolationmode none
attr title "lifetime of arrived jobs, vector"
attr unit s
vector 4 Network.sink lifeTime:vector ETV
attr interpolationmode none
attr title "lifetime of arrived jobs, vector"
attr unit s
0	0	0	0
0	59	3359.243934987715	1
0	61	3389.088232194447	2
0	63	3396.398010473521	1
0	68	3613.138750034614	2
0	70	3677.467275226616	3
0	84	4142.424705844195	2
0	89	4170.487988006173	3
0	91	4240.937087430869	4
0	93	4356.321364901573	3
0	98	4425.410316852026	4
0	100	4523.739347379477	3
0	109	4805.963141974451	2
0	118	5065.081508363937	3
0	120	5119.799333884925	2
0	125	5120.404295575442	3
0	131	5344.838715922477	2
0	136	5416.667053812227	3
0	142	5462.779975841147	4
0	152	5757.526464965584	3
0	157	5801.802004273803	2
0	170	5967.116764969737	1
0	179	6346.10523879038	2
0	185	6613.514310216247	3
0	187	6629.957708505545	4
0	189	6659.595838920865	5
0	199	6893.618551190729	6
0	205	6958.877717759438	7
0	207	6966.790304220826	6
0	216	7038.643055539968	5
0	221	7084.839873540238	6
0	231	7234.869693656583	7
0	233	7263.317470313029	8
0	235	7274.917149075067	9
0	245	7439.019200388164	8
0	250	7441.351179830422	9
0	252	7800.73235405648	8
0	269	7975.503436659003	9
0	271	8028.399924421119	10
0	281	8505.607371218116	9
0	294	8725.355452802422	8
0	299	8732.489543776781	7
0	308	8979.706538319201	6
0	313	9058.161379430265	5
0	322	9410.426349751265	4
0	335	9685.537823234143	3
0	340	9725.349837765275	4
0	350	9905.248957749889	5
0	360	10266.585748903067	4
0	373	10377.100346829564	3
0	378	10531.601458787532	2
0	387	10771.356100290047	3
0	397	10980.525654200854	2
0	402	11004.254210479171	1
0	407	11024.638620581273	2
0	437	11858.266522805603	3
0	439	11903.381090085775	2
0	448	12000.443821731416	3
0	454	12205.67807605281	4
0	456	12327.500498835387	3
0	469	12445.217987745614	2
0	474	12462.626882767431	3
0	476	12535.670484671806	4
0	490	13135.252556782605	3
0	495	13332.141962643534	2
0	500	13358.148205801398	3
0	506	13498.214037008197	2
0	515	13660.240859639141	3
0	517	13750.762737672878	4
0	523	13787.049362603964	3
0	544	14178.185389037997	2
0	549	14273.275998626293	1
0	570	15049.247415725824	2
0	580	15131.603516339869	1
0	588	15199.831911247993	2
0	590	15358.958903882474	1
0	608	15669.03813596661	2
0	610	15901.250618305446	1
0	623	16221.432696265821	2
0	625	16431.632800141029	3
0	627	16558.585994127959	2
0	632	16625.610563195855	1
0	641	16833.735637152504	2
0	647	16909.722470379979	1
0	652	17397.692514490725	0
0	657	17424.340059104397	1
0	659	17487.092126972693	2
0	661	17534.236334263892	1
0	674	17749.469327606863	2
0	692	18096.334269401075	1
0	700	18214.029222611159	0
0	708	18378.842898921092	1
0	720	18680.768365072566	2
0	726	18937.707552345914	3
0	728	18949.383636861653	2
0	737	19297.544389684142	1
0	750	19445.034375003302	2
0	752	19491.89228368493	3
0	758	19648.169607665211	2
0	763	19867.963966194685	3
0	769	19901.514915215052	4
0	771	19990.044789226929	5
0	773	20037.391156403806	6
0	775	20080.201297811777	5
0	784	20231.048622757427	6
0	790	20373.564076084263	7
0	792	20548.366919402422	6
0	801	20599.896285679013	5
0	814	21078.24394295031	4
0	819	21229.832769759634	5
0	825	21360.858744158954	4
0	830	21374.778118036033	5
0	832	21413.929227609577	4
0	849	21814.844575594932	3
0	854	21839.462817997982	4
0	864	22132.926578381792	5
0	873	22206.86071897083	6
0	875	22217.614508165583	7
0	877	22274.038261542485	8
0	879	22289.092358760149	7
0	895	22662.227685261339	6
0	900	22688.986051883938	5
0	905	22736.800762912825	6
0	937	23776.686140931756	5
0	942	23894.758644174606	4
0	955	24005.671523350978	5
0	957	24019.69461010808	4
0	966	24435.685225926114	5
0	972	24681.602224961205	6
0	978	24912.305112365455	5
0	995	25227.397301457436	4
0	1004	25608.700512703898	3
0	1013	25780.356147102625	2
0	1022	26066.817602557298	3
0	1024	26089.803231913418	2
0	1029	26161.585527863743	1
0	1034	26323.952509527629	2
0	1044	26547.838714494915	1
0	1057	26813.197512324721	0
0	1081	27199.526463304606	1
0	1087	27233.179686989719	2
0	1093	27504.416806991965	1
0	1102	27538.157039003784	2
0	1104	27595.567771762062	3
0	1114	27999.336602463932	2
0	1123	28116.397815404326	3
0	1133	28310.676214843602	2
0	1138	28328.33332157701	1
0	1143	28407.625385583225	2
0	1145	28481.331538889379	1
0	1150	28603.125874621256	2
0	1159	28870.685061428027	3
0	1170	29035.334277484388	2
0	1175	29048.938841549752	1
0	1184	29111.91507693696	2
0	1189	29386.463141392354	3
0	1191	29418.036795238491	4
0	1198	29481.153062209101	3
0	1211	29690.05397031232	4
0	1213	29718.695348454712	3
0	1218	29825.032032601371	4
0	1224	30229.177602413864	3
0	1233	30454.807594865175	2
0	1238	30502.295868387519	1
0	1254	30824.736996787027	2
0	1265	31053.93389988823	3
0	1267	31183.750573470803	2
0	1276	31328.584392029614	1
0	1293	31605.567716660752	2
0	1311	32021.240898301601	3
0	1317	32080.692023662924	2
0	1322	32147.940470613154	1
0	1339	32638.141052805143	2
0	1341	32738.141151740762	1
0	1350	33004.169856529505	0
0	1359	33090.860823294853	1
0	1365	33456.448035193681	0
0	1394	34042.2586680961	1
0	1396	34242.246964667889	2
0	1398	34260.049271133172	3
0	1400	34303.666974711985	2
0	1405	34383.588911406311	1
0	1414	34440.548670339997	2
0	1420	34500.917033842135	3
0	1422	35019.712217962443	2
0	1431	35347.191971986004	3
0	1437	35558.880845307919	2
0	1450	35753.166786279351	1
0	1455	35890.371429399553	2
0	1457	36077.098907425015	3
0	1459	36200.469922525882	2
0	1464	36339.882706030818	1
0	1469	36409.218879541262	2
0	1471	36461.838599967779	3
0	1481	36581.421293117789	4
0	1491	36984.932320830597	5
0	1497	37305.393871065051	4
0	1506	37549.430121509432	3
0	1511	37671.918957717332	2
0	1516	37754.245728585691	1
0	1541	38241.309379093286	2
0	1543	38248.935299614991	3
0	1545	38451.190243437502	2
0	1550	38518.406132254795	3
0	1552	38528.126256217972	4
0	1558	38753.803789582305	5
0	1564	38970.719608655273	4
0	1569	39254.374631862909	3
0	1582	39355.146896996355	4
0	1592	39576.815807222936	3
0	1605	39902.125438026969	4
0	1607	40089.23842836133	3
0	1620	40335.725326454341	2
0	1625	40472.683320646219	3
0	1627	40538.521515529305	4
0	1637	40770.521539668972	5
0	1639	40871.537725289079	6
0	1645	40908.631913918824	5
0	1658	41161.358165219042	4
0	1667	41432.524479171335	3
0	1688	42213.273193007364	4
0	1694	42232.653199872076	3
0	1702	42371.592507496048	4
0	1704	42476.392454314799	3
0	1709	42660.495822280261	2
0	1727	42788.823966827066	1
0	1732	42961.778046789196	2
0	1734	42973.183241419177	3
0	1736	43002.56941496402	2
0	1745	43120.919082201633	1
0	1750	43160.754661217644	2
0	1756	43574.867227129634	3
0	1762	43734.429847113404	2
0	1767	43759.075869243415	1
0	1776	43913.190316323473	2
0	1786	44110.880455216467	1
0	1795	44266.721511804682	2
0	1797	44272.788117490325	1
0	1822	44778.241157159122	2
0	1824	44786.645703237327	1
0	1841	45036.815629404589	2
0	1859	45426.89444820404	1
0	1864	45493.170211501036	0
0	1873	45575.690210422966	1
0	1875	45968.086274411353	0
0	1928	47120.23261526688	1
0	1930	47192.028015107461	2
0	1935	47322.090441889274	1
0	1940	47382.538674391421	2
0	1942	47448.344306449661	3
0	1944	47493.224947328183	4
0	1960	47742.984040715595	3
0	1969	48058.604773172041	2
0	1982	48146.710768719719	3
0	1984	48423.147406839629	2
0	1989	48555.887626964653	1
0	1998	48568.401918063906	2
0	2000	48678.59140709122	1
0	2009	48810.126215561438	0
0	2022	49118.30784561925	1
0	2024	49126.387359831536	0
0	2101	50512.564572589465	1
0	2108	50562.608432022907	2
0	2113	50615.740296877901	1
0	2127	50803.708859688296	2
0	2137	51623.573684328984	3
0	2139	51662.745154334864	2
0	2144	51752.043403956659	3
0	2146	51847.392303547176	4
0	2148	51924.439888372289	3
0	2153	52015.562432147543	2
0	2170	52532.690405755004	1
0	2175	52623.747261948155	0
0	2213	53786.098321620846	1
0	2220	53943.980637878036	2
0	2234	54129.557645171152	1
0	2247	54278.991493445171	0
0	2259	54929.700609764605	1
0	2269	55230.404894262915	0
0	2342	57282.136341021114	1
0	2344	57296.026532896453	0
0	2353	57578.464566888702	1
0	2355	57663.43929920792	0
0	2452	60554.944592362602	1
0	2454	60582.775364018696	0
0	2459	60628.411448182813	1
0	2465	60933.82379623177	2
0	2467	61010.669233280275	1
0	2472	61283.454741339438	2
0	2474	61563.015587165671	1
0	2479	61623.751675512095	2
0	2485	61696.02830740437	3
0	2487	61780.659234211015	4
0	2489	61864.037011098144	3
0	2498	61945.611232311108	4
0	2508	62540.856978747103	3
0	2513	62904.535998500603	2
0	2522	63158.2683219789	1
0	2531	63338.192009124932	0
0	2536	63571.610702855364	1
0	2538	63771.971720444445	2
0	2544	63837.55830893026	3
0	2550	63921.610666976593	4
0	2560	64056.027325562852	3
0	2565	64170.085713806357	4
0	2567	64176.730904904862	5
0	2573	64480.223602059338	4
0	2578	64599.81297183178	5
0	2584	64840.103717756277	6
0	2590	64867.547978106913	5
0	2595	64897.48377107161	6
0	2597	64908.551893609438	7
0	2611	65227.962019912618	6
0	2632	66075.638095590327	5
0	2641	66245.500763341504	4
0	2646	66314.834422078011	3
0	2651	66334.585662533799	4
0	2653	66390.986307345015	5
0	2663	66859.454931937275	6
0	2669	67031.763833093498	5
0	2678	67177.379871215699	4
0	2683	67186.996939949411	3
0	2688	67414.244776869123	4
0	2710	68158.160236887224	5
0	2712	68239.995803575073	4
0	2721	68343.247406112878	5
0	2723	68549.037093981995	6
0	2725	68562.809561919449	5
0	2734	68660.803253925209	6
0	2736	68662.095193437952	5
0	2749	68864.009110595141	4
0	2754	68896.256211520896	5
0	2760	69162.454899999354	4
0	2769	69272.633157906001	5
0	2779	69501.093206163524	4
0	2784	69537.051221739471	5
0	2786	69547.165069714228	6
0	2792	69978.90872037041	5
0	2797	70036.473201524729	6
0	2803	70067.225629727397	5
0	2808	70114.887183889467	4
0	2813	70116.287448311729	5
0	2827	70615.418860104303	6
0	2840	70820.501724439192	7
0	2842	70869.1425210092	8
0	2857	71191.356051664086	9
0	2859	71304.409702107031	8
0	2868	71528.797490862241	9
0	2870	71610.357752780471	8
0	2875	71638.744260910927	7
0	2888	71955.456101103677	8
0	2890	71995.790633354496	9
0	2896	72184.967327903066	8
0	2901	72427.028234762846	9
0	2903	72434.887937512277	8
0	2912	72646.825386777929	9
0	2918	72829.810058533866	8
0	2927	72984.163411133109	9
0	2933	73021.468560898717	10
0	2938	73196.483007374261	9
0	2943	73352.797729310136	10
0	2954	73567.390908505796	9
0	2971	73913.228183634459	10
0	2981	74200.464538357873	9
0	2990	74390.219171714529	10
0	2996	74427.087444181596	9
0	3013	74967.823226624363	10
0	3015	75191.115081786459	11
0	3017	75199.965579718073	10
0	3022	75239.252891581626	11
0	3024	75241.343913208722	10
0	3029	75252.058069030713	11
0	3035	75343.042847481298	12
0	3045	75725.546697343742	11
0	3054	75891.954158082326	10
0	3059	75975.305996927101	11
0	3065	76079.026547035548	12
0	3071	76289.126021882214	13
0	3077	76485.081862996375	12
0	3086	76688.937699064561	13
0	3088	76690.959528144478	12
0	3105	77302.664922684153	11
0	3122	77599.778724366822	12
0	3124	77785.969619285344	11
0	3129	77835.816194715952	10
0	3142	78195.568075422226	9
0	3147	78235.142512034148	10
0	3149	78270.173568673154	9
0	3154	78513.54807494553	8
0	3159	78710.160999068669	9
0	3161	78723.85969718921	8
0	3178	79125.880448821043	7
0	3191	79737.19059916216	6
0	3204	79768.964810177004	7
0	3214	79920.585350526175	8
0	3224	80069.88786830605	9
0	3226	80099.242943063101	8
0	3231	80117.81178437457	7
0	3248	80345.005749892472	6
0	3257	80562.907793226694	5
0	3270	80934.122024181341	4
0	3279	81105.113495573124	3
0	3284	81243.443387756946	4
0	3293	81412.384366457459	5
0	3295	81464.998560458144	4
0	3300	81517.152335832869	3
0	3322	81811.698724757909	2
0	3327	82081.547002571677	1
0	3355	82683.986574656984	0
0	3490	86850.51936166385	1
0	3492	86902.611398199173	2
0	3494	86906.242056191346	1
0	3503	86945.602114805993	0
0	3508	87083.06727374663	1
0	3514	87684.9756170068	0
0	3523	87749.035596174329	1
0	3529	88170.68165598852	0
0	3560	88702.933105982432	1
0	3562	88716.846999734271	2
0	3564	88752.165355428558	3
0	3566	88956.914129486241	4
0	3580	89288.641566917792	5
0	3586	89527.176918695669	6
0	3592	89727.201060854518	7
0	3594	89755.126422951211	6
0	3599	89822.183084013197	5
0	3604	89824.814082111663	6
0	3606	89848.215370499021	5
0	3623	90290.703947869048	6
0	3625	90395.538967529256	7
0	3627	90407.578663761009	6
0	3636	90615.521774823103	5
0	3649	91010.995514067103	4
0	3654	91116.800880715674	3
0	3659	91253.18493700182	4
0	3661	91362.091352249917	5
0	3671	91376.581128211949	4
0	3684	91784.807328293313	3
0	3693	91967.19244749311	2
0	3704	92074.031265762232	3
0	3711	92141.276778229004	2
0	3716	92147.816353998476	3
0	3721	92240.556793743958	2
0	3731	92287.915313398556	3
0	3742	92585.206687994724	2
0	3767	93442.052133912478	1
0	3772	93501.092534037521	0
0	3789	93658.161793338291	1
0	3795	93866.391870395551	2
0	3801	93952.13560474859	3
0	3803	93987.350416318005	2
0	3812	94141.667507412126	1
0	3821	94551.0404427285	2
0	3823	94575.242392406291	1
0	3828	94601.482974263293	2
0	3834	94762.442417601794	3
0	3836	94770.760071517921	4
0	3842	95062.167254882191	3
0	3863	95441.286593375008	4
0	3865	95464.931746730795	3
0	3882	96138.966122739441	2
0	3891	96174.493022900999	3
0	3901	96740.299968021248	2
0	3906	96884.263509297958	1
0	3911	96989.256945562151	2
0	3917	97278.002167726193	1
0	3922	97412.07048325283	0
0	3927	97497.815248680057	1
0	3929	97634.175005564681	0
0	4049	101075.339650280301	1
0	4051	101102.781320307725	0
0	4199	106662.485223911862	1
0	4201	106735.22169976394	2
0	4207	106824.520314796393	1
0	4212	106933.05389591834	2
0	4218	107150.782224616602	3
0	4220	107171.499860227705	2
0	4225	107235.878327118974	1
0	4234	107752.78752137454	2
0	4240	107952.776357172554	1
0	4249	108227.85074779451	0
0	4254	108285.576787753267	1
0	4264	108651.294080282371	0
0	4288	109280.750457233821	1
0	4290	109294.942516054259	2
0	4300	109553.717612451439	1
0	4305	109766.185286060573	0
0	4310	109909.012661239788	1
0	4316	110017.171373496804	0
0	4329	110310.684962633842	1
0	4335	110512.310402529368	2
0	4341	110796.673677116812	3
0	4351	110947.860399312445	4
0	4357	111082.619854713831	3
0	4362	111214.229491912019	4
0	4364	111216.709208615722	3
0	4369	111223.876839032893	2
0	4386	111737.286361608316	3
0	4388	111895.684297750418	4
0	4390	111906.907435189042	3
0	4395	112079.583943929965	4
0	4397	112229.99817022741	3
0	4402	112349.51232254042	4
0	4419	112776.099565903697	3
0	4424	112804.278081359826	4
0	4426	112819.363196990018	3
0	4431	113063.133816923056	2
0	4436	113179.406969096127	3
0	4438	113221.38421518219	2
0	4472	113604.415481886392	1
0	4477	113767.414202136647	2
0	4479	113802.633174294709	3
0	4481	113878.47488851905	2
0	4490	114057.242258143373	3
0	4496	114125.896117515022	4
0	4514	114629.239563773427	3
0	4519	114816.673846914373	4
0	4525	114908.529766401773	3
0	4530	115034.577949417109	4
0	4536	115276.860061824919	3
0	4545	115325.66844883441	4
0	4551	115511.386847297694	5
0	4553	115538.086342154568	4
0	4558	115541.754862475927	5
0	4564	115611.728125394809	6
0	4574	116001.03185409591	5
0	4583	116020.415458595996	6
0	4589	116237.785963988429	5
0	4594	116438.543464966716	4
0	4607	117039.743693972979	3
0	4616	117094.785236427146	4
0	4618	117401.79378433064	3
0	4639	117640.384540645903	2
0	4648	117913.13001247077	3
0	4650	117946.76045210943	2
0	4659	118082.964201771321	1
0	4668	118266.926090846811	0
0	4828	123314.067427751108	1
0	4834	123470.91624009368	2
0	4840	123594.3884214778	1
0	4857	123903.77290365296	2
0	4863	124040.396562470278	1
0	4868	124166.091666540771	2
0	4870	124187.958515716107	3
0	4872	124236.653608544746	2
0	4877	124385.112585714242	1
0	4886	124737.88650193719	0
0	5001	128111.388869510857	1
0	5007	128290.371763686804	2
0	5021	128711.071680496687	1
0	5026	128777.211485375199	2
0	5028	128912.655762106713	3
0	5030	128914.720659176758	2
0	5035	128935.704281988612	3
0	5041	129425.40300422823	4
0	5047	129558.852689299986	3
0	5052	129637.999908210474	4
0	5058	129813.688229407424	3
0	5063	129817.533407721448	4
0	5065	129824.506809632233	3
0	5074	130419.154294836028	4
0	5080	130625.360908951542	5
0	5082	130806.625378387919	4
0	5087	130838.575622375363	3
0	5096	131038.283764822397	4
0	5106	131205.501321550712	3
0	5111	131210.899077984443	2
0	5124	131628.196526739055	1
0	5133	131736.550304338672	2
0	5135	131841.940073810816	3
0	5149	132171.784926239654	2
0	5162	132294.397703367224	1
0	5170	132492.678156098269	2
0	5185	133108.808514312878	3
0	5191	133173.683877076262	2
0	5208	133624.368943863818	3
0	5210	133631.150781470785	4
0	5212	133686.144871536916	5
0	5214	133722.735891142417	6
0	5216	133756.8542281131	5
0	5221	133802.931639533562	6
0	5223	133833.843954104239	5
0	5228	133936.626776675632	4
0	5233	134013.27231734612	5
0	5243	134346.306013356406	6
0	5249	134503.043540205115	5
0	5254	134660.968084010551	6
0	5260	134898.5972830991	5
0	5269	135279.445867347469	4
0	5274	135354.921009664532	5
0	5288	135718.638384248683	6
0	5298	136080.005088245864	7
0	5300	136142.197993207976	6
0	5305	136146.748844023103	5
0	5310	136185.180799583842	4
0	5319	136385.960022073627	5
0	5333	136832.624341282	4
0	5342	136981.36178753995	5
0	5352	137275.570461932823	4
0	5361	137309.896933788167	5
0	5367	137554.255445445826	4
0	5372	137752.778125080521	3
0	5377	137892.236249230722	4
0	5387	138121.990599442923	5
0	5389	138131.390972689035	6
0	5403	138563.538750741884	5
0	5408	138589.947841162732	4
0	5413	138742.103025825092	5
0	5427	139099.65775435085	6
0	5437	139290.037247064765	5
0	5442	139550.088967543633	6
0	5444	139640.285438751491	7
0	5450	139649.589810931355	8
0	5456	140020.598095278194	7
0	5461	140111.445527371272	6
0	5474	140220.467306756814	7
0	5476	140610.332541848775	6
0	5493	140995.639143757965	7
0	5495	141160.749834525641	6
0	5504	141282.94393706595	5
0	5513	141719.671490673229	4
0	5518	141737.258257594715	5
0	5524	141868.325576901264	6
0	5526	142009.775667539695	7
0	5528	142041.450934355825	8
0	5530	142074.095997728568	9
0	5532	142242.904545593221	10
0	5558	142794.552695910689	9
0	5563	142794.81504480814	8
0	5572	142985.445111280305	9
0	5578	143395.136692967519	8
0	5587	143537.748143981454	7
0	5592	143841.527989815232	6
0	5597	144012.291717153436	7
0	5603	144139.484961959472	6
0	5608	144190.871723290786	5
0	5613	144209.5935418132	6
0	5619	144429.243114602019	7
0	5645	144974.121165643385	6
0	5654	145103.520038846192	5
0	5659	145238.782888312146	4
0	5668	145419.991328779902	5
0	5674	145681.620120550445	4
0	5679	145739.465458105561	3
0	5692	145906.662301326934	4
0	5698	146131.805552478191	3
0	5711	146362.737528063979	4
0	5713	146405.723321770928	5
0	5719	146592.278421443209	4
0	5731	146909.468714883199	5
0	5750	147224.040275533724	6
0	5756	147292.552385809771	5
0	5765	147512.621155354437	4
0	5770	147603.473186340436	3
0	5775	147640.016388728336	4
0	5789	148145.800247142123	5
0	5795	148154.617585038176	6
0	5801	148455.582956592492	5
0	5810	148698.962621423355	4
0	5815	148920.295305859423	5
0	5829	149184.960014718827	4
0	5834	149247.035935288803	5
0	5836	149271.555394415065	4
0	5841	149341.544267682876	5
0	5847	149486.458094279524	4
0	5852	149556.573850533496	5
0	5858	149721.761716479278	6
0	5860	149769.806781507373	7
0	5866	150015.520499343923	6
0	5871	150033.324839171275	5
0	5876	150284.325703728255	4
0	5885	150729.169656011518	3
0	5898	150767.549812868088	4
0	5900	150820.599638211771	5
0	5910	151153.136417854609	6
0	5912	151177.013040555069	7
0	5922	151261.087560350946	6
0	5927	151282.788123238143	5
0	5932	151311.109042201444	4
0	5940	151556.012263442329	3
0	5982	152425.035684374051	4
0	5984	152443.638531411937	3
0	5989	152458.136256817981	2
0	5994	152543.850201788601	1
0	6011	152808.388888285537	2
0	6013	152882.332360887608	3
0	6019	152915.882270146414	2
0	6024	153084.194197167982	3
0	6026	153112.404056298486	2
0	6031	153113.828622424455	3
0	6033	153127.46305303956	4
0	6035	153129.111543301731	5
0	6037	153191.671376666778	6
0	6051	153711.913130019113	5
0	6056	153743.081107761083	6
0	6062	153876.679606396486	7
0	6064	153998.870003867206	6
0	6073	154169.448050154949	7
0	6079	154222.268138150624	6
0	6088	154455.379898707625	5
0	6097	154619.406223539794	6
0	6107	154723.976553180121	7
0	6113	154813.926859716824	6
0	6118	154856.268221444139	7
0	6132	155235.207016700061	8
0	6134	155320.742041153059	9
0	6136	155357.914165031418	8
0	6157	155758.09360231857	7
0	6162	155808.246155428943	6
0	6167	155842.647581168958	7
0	6173	155907.623038666591	8
0	6175	156152.70037486802	7
0	6184	156249.617430509016	8
0	6186	156345.852473112733	9
0	6188	156394.164589862279	8
0	6201	156678.281434323892	7
0	6218	157002.016822268745	8
0	6220	157018.955841767542	7
0	6233	157241.502492440182	8
0	6239	157440.114779522041	9
0	6241	157443.74153973855	10
0	6243	157477.969737957475	9
0	6248	157498.963165463322	10
0	6250	157562.74070722019	11
0	6256	157704.388396548979	10
0	6265	157948.932128000316	9
0	6270	157965.865526866421	8
0	6275	158203.149281692733	9
0	6277	158284.374806753186	10
0	6295	158710.100644077115	9
0	6304	158780.225794996378	8
0	6317	159195.78952513288	7
0	6322	159278.597891121277	8
0	6340	159593.506636741814	7
0	6349	159671.946831123309	8
0	6363	159927.217429574833	7
0	6368	160015.026670652382	6
0	6373	160052.958292934355	5
0	6378	160147.729727124591	6
0	6388	160602.087237383179	5
0	6401	161057.417533445415	4
0	6414	161252.663519863293	3
0	6431	161370.251980128899	4
0	6436	161669.182892079708	3
0	6441	161893.03953216109	4
0	6443	161922.804344381449	3
0	6457	162149.212573873751	2
0	6466	162254.928259382706	3
0	6472	162318.448446929789	4
0	6474	162390.726902432044	5
0	6476	162565.871770341203	4
0	6481	162608.500940139681	5
0	6491	162859.296244527154	4
0	6500	162941.156274910328	3
0	6509	163087.491683412285	4
0	6511	163172.638794892283	5
0	6513	163297.76482034003	4
0	6539	163665.056267190978	3
0	6549	164014.012765646977	4
0	6556	164191.6961424018	3
0	6561	164206.129478599074	4
0	6572	164458.996220729224	5
0	6574	164534.418381537554	4
0	6579	164580.84226797919	3
0	6584	164594.75218649482	2
0	6589	164666.008489040493	3
0	6611	164989.452629830942	2
0	6616	165001.7275670454	3
0	6622	165226.331928702943	2
0	6635	165529.167687926695	1
0	6640	165600.615067012281	2
0	6642	165604.339963282702	1
0	6659	166024.045330244057	0
0	6667	166103.765275186119	1
0	6672	166192.690419056026	2
0	6679	166206.368916184509	3
0	6681	166371.893220628855	2
0	6691	166458.002207256462	3
0	6701	166798.366117525158	2
0	6706	166905.189883556471	1
0	6715	167046.49712720072	0
0	6819	169298.97636857917	1
0	6821	169323.074749069908	2
0	6823	169421.926177957762	1
0	6828	169481.52523811566	0
0	6833	169548.222657697647	1
0	6847	169770.911543535137	0
0	6879	170340.54785118498	1
0	6881	170575.368922839296	2
0	6883	170600.44775979414	1
0	6900	170859.931395534746	0
0	6913	171472.894728217426	1
0	6935	171874.820976730495	0
0	6940	171933.285583736608	1
0	6942	171994.12500541903	2
0	6944	172230.973023453796	1
0	6953	172319.327111650578	0
0	7127	177993.965230925647	1
0	7137	178277.855945373873	0
0	7171	179375.326782281654	1
0	7189	179975.685429222222	0
0	7209	180221.233994582171	1
0	7219	180379.960038306139	2
0	7221	180428.747331173613	1
0	7226	180617.292215791414	0
0	7239	181019.693299830639	1
0	7241	181044.67692515188	0
0	7303	182815.965128594596	1
0	7309	182922.754205680962	2
0	7319	183203.397789117056	1
0	7324	183213.44913117424	0
0	7329	183258.378749255253	1
0	7339	183503.640967672169	2
0	7345	183712.164240328822	1
0	7350	184017.251388527254	2
0	7352	184064.525532232952	1
0	7357	184103.887111771959	0
0	7787	196394.126804064354	1
0	7797	196536.365678784936	2
0	7799	196625.84969245826	1
0	7812	196695.743876028012	0
0	7911	199879.577496437018	1
0	7921	199961.161748571438	2
0	7927	200223.929987706661	3
0	7929	200287.080601303465	4
0	7931	200308.005463925568	5
0	7937	200497.493873547976	4
0	7942	200634.453898280004	3
0	7947	200652.756636537393	4
0	7953	200918.755949398478	5
0	7955	201024.043722225668	4
0	7968	201343.548169259195	3
0	7977	201779.387058003882	2
0	7986	201924.79990274853	1
0	7991	201973.511834060856	2
0	7993	202006.145384525441	3
0	7995	202414.609181022587	2
0	8008	202545.072956628911	3
0	8010	202626.397307910191	4
0	8020	202743.791386222782	3
0	8025	202883.876323739317	4
0	8027	202911.518189550727	5
0	8033	203112.011286515956	4
0	8038	203169.959546624067	3
0	8051	203364.01136296157	2
0	8056	203463.999693868253	3
0	8062	203515.823742410484	2
0	8083	203983.37644465113	1
0	8092	204114.765896967689	0
0	8105	204611.502104084689	1
0	8115	204667.426822457676	0
0	8162	205646.639566556328	1
0	8164	205665.562506995713	0
0	8184	206016.060980740831	1
0	8186	206106.237166248452	0
0	8229	206884.960964595926	1
0	8235	207253.463878632039	2
0	8237	207272.610914555526	1
0	8242	207278.613863324167	2
0	8248	207492.830392182064	1
0	8257	207739.638468983934	0
0	8266	207851.934649445431	1
0	8272	207926.735774077666	0
0	8288	208298.765344040846	1
0	8290	208346.676643114907	2
0	8292	208547.929848708678	3
0	8306	208640.649892528481	2
0	8315	208698.429995686007	1
0	8320	208707.288578572041	2
0	8329	208931.336168934531	1
0	8334	209016.258117435911	2
0	8341	209186.953001718388	1
0	8346	209353.657196491532	2
0	8380	210297.558505226798	1
0	8389	210354.390232026768	0
0	8470	212565.505618330706	1
0	8472	212623.397780766583	2
0	8486	212778.970018076863	1
0	8491	213228.617894523523	2
0	8493	213317.37247194527	3
0	8495	213491.050097803738	2
0	8504	213884.11537094106	1
0	8509	213989.747013055979	2
0	8511	214060.745328631017	1
0	8520	214442.166213471207	0
0	8601	216803.757253687307	1
0	8607	216910.970630512747	0
0	8627	217608.602969728333	1
0	8637	218039.367949866864	0
0	8653	218215.030404847373	1
0	8659	218404.067752297951	0
0	8664	218454.807535955841	1
0	8670	218656.623210199616	2
0	8672	218692.102234489853	3
0	8674	218865.659823609434	4
0	8676	218882.950390006176	5
0	8678	219088.175920866906	4
0	8683	219121.435583803786	3
0	8688	219197.333185907343	4
0	8690	219333.274934896297	5
0	8696	219424.925979051722	4
0	8705	219465.072923020634	3
0	8710	219567.612059623479	2
0	8726	219953.796706468016	3
0	8736	220084.004052148375	2
0	8741	220175.864622805311	3
0	8743	220176.997885399672	4
0	8753	220253.63542424935	3
0	8758	220278.383348499244	4
0	8768	220450.03814518434	5
0	8770	220506.217677326193	6
0	8772	220522.697339304267	5
0	8777	220555.980020098258	6
0	8784	220673.029060919499	7
0	8786	220733.931815938267	6
0	8791	220755.283510547114	5
0	8800	220855.988986915279	6
0	8806	220959.442287422439	7
0	8812	221052.405498512658	8
0	8814	221097.651765777739	9
0	8816	221126.380002893983	8
0	8821	221211.558119927483	9
0	8843	221642.421266567297	10
0	8848	221776.064265028552	11
0	8850	221839.287695757607	12
0	8857	221963.921782248198	11
0	8878	222203.250370782718	12
0	8880	222306.028417464904	13
0	8882	222354.616446245445	12
0	8887	222400.119527817878	11
0	8908	222955.615851741267	10
0	8913	223219.142962334914	11
0	8915	223291.312578362384	12
0	8917	223389.2352115847	11
0	8926	223572.244370453536	10
0	8935	223705.879685839395	11
0	8937	223747.301744457317	10
0	8942	223757.778488376352	9
0	8947	223772.409270349011	10
0	8953	224040.41124412528	9
0	8958	224045.16987829525	10
0	8964	224202.084523424983	9
0	8977	224318.104796942306	8
0	8993	224794.450640067935	7
0	8998	224844.478240252647	6
0	9008	224949.613842155767	5
0	9027	225217.378937953326	4
0	9032	225231.686544701934	3
0	9063	225804.734499731275	2
0	9082	226115.203747946752	1
0	9105	226657.582973935187	0
0	9110	226664.503143192624	1
0	9112	226980.507507092081	2
0	9117	227069.646675295769	3
0	9119	227077.060361483308	2
0	9133	227123.864841332948	3
0	9143	227570.506581079198	2
0	9148	227745.641404527524	3
0	9158	227998.481813187054	4
0	9160	228168.346540683123	3
0	9173	228272.44989263314	2
0	9182	228420.191700780907	3
0	9184	228441.501081887378	4
0	9186	228665.57590344174	3
0	9191	228820.771075509965	2
0	9212	229617.194538579496	1
0	9221	229768.683536324633	0
0	9241	230000.059146596004	1
0	9243	230061.404876775389	2
0	9249	230111.995327407184	3
0	9255	230343.698599235832	2
0	9264	230732.386856802913	1
0	9277	231040.258827816678	0
0	9297	231293.50967074447	1
0	9319	232004.504948318094	2
0	9321	232017.078080449236	1
0	9326	232105.712240130814	0
0	9343	232546.618550106812	1
0	9345	232644.233167124804	0
0	9358	232995.431501018584	1
0	9360	233014.641155388189	0
0	9421	234433.418103606822	1
0	9427	234462.633941746097	0
0	9432	234508.212206310826	1
0	9434	234634.771301349601	2
0	9436	234647.318684973709	3
0	9442	234877.879324655995	4
0	9456	235085.353304834461	5
0	9470	235559.413240298856	4
0	9475	235610.9094869236	5
0	9485	235879.682055939572	4
0	9490	235883.753265969682	3
0	9499	236030.288546285372	2
0	9512	236323.910887203123	3
0	9514	236334.179362781968	4
0	9516	236575.504447170202	5
0	9518	236662.369530589197	6
0	9520	236720.979765688627	7