version 2
run Iteration-72-20200521-09:55:39-71908
attr configname Iteration
attr datetime 20200521-09:55:39
attr experiment Iteration
attr inifile omnetpp.ini
attr iterationvars "$i=8, $j=3, $0=15-(8+3)"
attr iterationvarsf i=8,j=3,15-(8+3)-
attr measurement "$i=8, $j=3, $0=15-(8+3)"
attr network Network
attr processid 71908
attr repetition 0
attr replication #0
attr resultdir results
attr runnumber 72
attr seedset 72
itervar i 8
itervar j 3
param **.resourcePool.amount 8
param **.resourcePool1.amount 3
param **.resourcePool2.amount 15-(8+3)
param **.source.interArrivalTime exponential(6min)
param **.delay.delay uniform(4min,28min)
param **.delay1.delay uniform(10min,28min)
param **.delay2.delay uniform(4min,16min)
param **.allocate.resourceModuleName "\"Network.resourcePool\""
param **.allocate1.resourceModuleName "\"Network.resourcePool1\""
param **.allocate2.resourceModuleName "\"Network.resourcePool2\""
param **.deallocate.resourceModuleName "\"Network.resourcePool\""
param **.deallocate1.resourceModuleName "\"Network.resourcePool1\""
param **.deallocate2.resourceModuleName "\"Network.resourcePool2\""
param **.router.randomGateIndex "uniform(0, 1) > 0.2 ? 0 : 1"

vector 0 Network.allocate queueLength:vector ETV
attr interpolationmode sample-hold
attr title "queue length, vector"
vector 1 Network.allocate1 queueLength:vector ETV
attr interpolationmode sample-hold
attr title "queue length, vector"
vector 2 Network.allocate2 queueLength:vector ETV
attr interpolationmode sample-hold
attr title "queue length, vector"
vector 3 Network.sinkStat lifeTime:vector ETV
attr interpolationmode none
attr title "lifetime of arrived jobs, vector"
attr unit s
vector 4 Network.sink lifeTime:vector ETV
attr interpolationmode none
attr title "lifetime of arrived jobs, vector"
attr unit s
0	0	0	0
0	1396	35388.397539772079	1
0	1403	35483.89698911952	0
0	2697	67911.268587816171	1
0	2704	68079.853188097027	0
0	2708	68111.077352096853	1
0	2714	68338.13693717867	0
0	2718	68377.826671561264	1
0	2720	68544.810256205403	2
0	2722	68569.005910695679	1
0	2726	68652.644032301845	2
0	2728	68685.097460818116	1
0	2732	68695.745750162038	0
0	5778	143233.315615899253	1
0	5780	143271.852679323687	0
0	5784	143403.266967723321	1
0	5790	143504.629959728242	0
0	5794	143536.886654556028	1
0	5805	143699.337395084382	0
0	9316	231186.468464644743	1
0	9318	231246.918606880701	0
0	11275	276146.939615718604	1
0	11277	276177.171908130201	0
0	11281	276200.868291292775	1
0	11283	276255.392378506252	0
1	0	0	0
1	80	4713.522276865565	1
1	86	4957.334075565575	2
1	88	5088.005256618943	1
1	97	5171.906865634179	0
1	103	5263.923205780508	1
1	105	5348.715569431068	0
1	118	5414.871248848137	1
1	132	5913.786887622051	2
1	134	5955.211586024767	1
1	140	6079.828002338738	2
1	151	6354.225070638221	1
1	157	6354.654601237376	2
1	167	6575.943648909656	3
1	169	6899.347375067106	2
1	174	6901.943850338565	1
1	187	7113.673941650765	2
1	190	7155.89470688439	3
1	199	7467.718644601566	4
1	202	7535.391695172189	5
1	208	7711.786660639208	4
1	217	7776.72325712453	3
1	222	7796.542739024541	2
1	237	8072.606615373333	3
1	243	8168.553635152656	4
1	250	8326.466943682925	5
1	253	8410.584621826469	6
1	267	8627.20955712612	7
1	273	8676.719617009676	8
1	278	9106.992097355532	7
1	286	9188.10799448156	6
1	291	9289.987037222988	5
1	297	9468.750480813288	6
1	312	9708.124807497602	7
1	315	9739.794594340299	8
1	320	9907.406457390743	7
1	326	9939.427501924204	8
1	329	10046.909110150966	9
1	331	10227.277498341736	8
1	341	10585.795048194114	9
1	343	10645.14380648189	8
1	365	11153.266315961364	7
1	371	11158.051098637776	8
1	373	11210.137077796844	7
1	382	11669.83540264337	8
1	385	11726.304936654708	9
1	394	11974.777556484205	8
1	407	12234.174797270432	9
1	409	12263.426448874332	8
1	422	12436.364827289935	9
1	428	12501.420842405768	10
1	433	12675.891776288036	9
1	444	12937.16176307217	8
1	457	13026.73948262834	9
1	463	13242.088726482925	8
1	473	13509.796779739406	9
1	479	13638.560206331103	10
1	482	13774.423967491874	11
1	487	13887.959567343924	10
1	493	13898.752810748221	11
1	500	14043.465517230173	12
1	502	14235.60635238291	11
1	508	14377.328556808506	12
1	511	14412.871596088305	13
1	513	14427.264642812468	12
1	535	15179.105158237897	11
1	544	15217.579422460977	10
1	550	15299.545933455488	11
1	556	15633.233875006516	12
1	558	15633.676798803371	11
1	578	16125.677632823238	12
1	586	16310.556651115057	11
1	596	16345.917367248893	12
1	598	16667.553648440324	11
1	603	16840.930268604417	10
1	612	16917.734722143823	11
1	619	17009.168027186831	12
1	625	17224.297284499671	13
1	631	17314.057246151951	12
1	644	17591.473621090389	13
1	650	17930.596417154756	12
1	655	18035.820182606687	11
1	660	18087.002245852881	10
1	666	18111.900899942193	11
1	669	18206.435152843171	12
1	679	18509.011163057702	13
1	688	18803.059274772339	12
1	697	19064.468497557675	11
1	703	19172.501411234069	12
1	712	19248.978231990349	11
1	718	19568.425359103144	12
1	723	19640.013391351484	11
1	732	19865.43665940698	10
1	741	20253.745009557915	9
1	755	20681.209659594984	10
1	760	20900.170225709316	9
1	769	21131.993838826304	8
1	778	21240.438096521684	9
1	780	21244.019708292716	8
1	786	21277.325708144749	9
1	797	21893.173423998397	10
1	803	22214.019119370886	9
1	811	22287.189753897127	8
1	825	22734.490070918685	7
1	835	23036.883046412278	8
1	842	23104.135286413439	9
1	845	23254.028422186949	10
1	854	23500.168116859731	9
1	860	23520.152739677	10
1	871	23638.626134002691	9
1	876	23777.926195956924	8
1	886	23984.499276219787	9
1	896	24439.805464432514	10
1	899	24467.092683285193	11
1	906	24620.120664647571	12
1	908	24709.71519972586	11
1	916	24855.690356668195	10
1	928	25067.450951996591	11
1	930	25145.003503229108	10
1	939	25569.665047664569	11
1	949	25687.660806136363	10
1	955	25873.923065149917	11
1	962	25978.532028214608	12
1	981	26482.934600153978	13
1	983	26522.03636087302	12
1	989	26640.581372595474	13
1	992	26647.51225081724	14
1	994	26790.639891590562	13
1	999	26825.040659414762	12
1	1019	27374.735337776279	13
1	1026	27730.876942139576	14
1	1028	27792.079129915795	13
1	1040	28049.367582024279	14
1	1046	28153.275703730233	15
1	1053	28396.301392471434	16
1	1055	28408.229205919069	15
1	1061	28415.515572882513	16
1	1063	28428.000250239083	15
1	1080	29079.769024582219	14
1	1089	29231.901618026308	13
1	1113	29617.036215213746	14
1	1116	29691.605614915426	15
1	1121	29894.189927861252	14
1	1129	29996.298223061598	13
1	1135	30005.702836364781	14
1	1138	30056.035702161091	15
1	1144	30189.229699167968	16
1	1147	30196.415815734915	17
1	1153	30413.706534564134	16
1	1163	30548.736425558546	17
1	1179	30820.495948505193	18
1	1182	31069.493070812057	19
1	1188	31330.60898846117	20
1	1193	31381.550550263486	19
1	1201	31494.847616063589	18
1	1210	31694.456512043529	19
1	1213	31820.60745496417	20
1	1218	32021.365364132088	19
1	1224	32191.131378148618	20
1	1230	32214.71121165556	21
1	1233	32285.157419765544	22
1	1235	32306.012406589574	21
1	1248	32431.187167972484	20
1	1254	32670.976778286181	21
1	1266	32988.393194315594	20
1	1275	33007.649614306277	19
1	1285	33102.563697146201	20
1	1287	33114.448867332348	19
1	1293	33132.234591151768	20
1	1307	33861.586906933079	21
1	1309	33888.640245603037	20
1	1322	34046.76322659811	21
1	1325	34086.156845927642	22
1	1333	34222.331915958011	21
1	1348	34649.289481144509	20
1	1361	34843.113335970556	21
1	1364	34876.820161577092	22
1	1370	34928.289527399198	23
1	1375	35137.840028353193	22
1	1385	35180.165445512218	23
1	1398	35479.163697886852	22
1	1405	35483.89698911952	23
1	1408	35631.220268158401	24
1	1410	35632.94361900363	23
1	1416	35689.566267243506	24
1	1419	35697.164651241393	25
1	1429	36022.998429541757	26
1	1431	36139.867128314608	25
1	1441	36213.325407795984	26
1	1444	36239.92668070341	27
1	1447	36245.183726839057	28
1	1454	36327.231204801075	29
1	1460	36553.660557403801	28
1	1466	36700.358721367982	29
1	1468	36956.615278663224	28
1	1484	37766.261206543231	27
1	1495	37986.491314427568	26
1	1500	38176.594267001486	25
1	1512	38390.2385684421	24
1	1518	38446.301060998992	25
1	1525	38523.84607189185	26
1	1528	38529.363099172281	27
1	1541	39147.944994678831	26
1	1547	39150.077078258859	27
1	1549	39174.685892335712	26
1	1574	39925.987733233878	25
1	1583	40149.252405157221	26
1	1586	40176.693686442526	27
1	1592	40396.881100970636	28
1	1594	40433.092974139019	27
1	1600	40448.473141174435	28
1	1603	40454.941553544961	29
1	1612	40792.944395950174	28
1	1625	40849.845428470461	29
1	1630	41156.091137588182	28
1	1635	41187.211309637516	27
1	1644	41317.202364345818	28
1	1647	41549.528479248986	29
1	1650	41583.627736566248	30
1	1652	41719.941116821131	29
1	1662	41832.819813458818	30
1	1682	42250.399862708166	29
1	1690	42462.640466312104	28
1	1710	42914.154382149487	29
1	1716	42990.118739934455	30
1	1718	43016.279566509759	29
1	1724	43199.396922454311	30
1	1726	43215.672454222679	29
1	1736	43326.984920316807	30
1	1739	43372.413844303913	31
1	1742	43411.797555850985	32
1	1748	43788.569721317029	31
1	1754	43946.006104971894	32
1	1759	43991.781098250457	31
1	1768	44440.363140249267	30
1	1780	44933.740742387407	29
1	1785	45147.575099462285	28
1	1790	45167.186767168453	27
1	1796	45206.669038281595	28
1	1816	45693.897583907627	27
1	1822	45907.910194432482	28
1	1829	46080.829774350505	29
1	1845	46616.423579753281	30
1	1847	46647.269254628211	29
1	1853	46653.984917228435	30
1	1855	46667.796027761063	29
1	1865	46978.186739892166	30
1	1871	47286.630624136113	29
1	1876	47292.231246217727	28
1	1893	47616.812611165168	29
1	1898	47908.789704809122	28
1	1903	47928.484944415852	27
1	1911	48265.676221221796	26
1	1926	48607.845083590754	25
1	1932	48610.689583329118	26
1	1945	48936.650123830111	27
1	1951	49036.449863182491	26
1	1961	49127.103505608387	27
1	1963	49200.218336706623	26
1	1972	49237.441468015186	27
1	1975	49280.862506232959	28
1	1980	49611.643681185477	27
1	1989	49809.750652218348	26
1	1998	49894.015723331415	27
1	2005	49981.066643915637	28
1	2019	50363.675163971995	29
1	2022	50372.936330657123	30
1	2024	50514.111704000845	29
1	2030	50548.825644170963	30
1	2032	50938.798803806416	29
1	2038	50994.285960078143	30
1	2043	51152.401844406658	29
1	2056	51499.550507503265	30
1	2066	51938.527831047415	29
1	2081	52271.660322886104	30
1	2083	52334.984036240884	29
1	2088	52561.767331313453	28
1	2098	52731.415083866821	29
1	2105	52916.054684491342	30
1	2107	52942.829525138825	29
1	2116	53007.351249329903	28
1	2121	53443.245411280654	27
1	2127	53565.945658820293	28
1	2141	54275.125332730048	27
1	2146	54345.981287833415	26
1	2151	54392.789036066845	25
1	2167	54944.503159192629	26
1	2177	55390.015432627983	25
1	2182	55568.965171066687	24
1	2194	55878.915787082323	23
1	2210	56109.752537876403	24
1	2213	56302.076255488132	25
1	2222	56542.682209561804	26
1	2228	56687.041390746989	25
1	2233	56802.443181940929	24
1	2238	56886.851229479648	23
1	2254	57265.1489071109	24
1	2264	57480.565443425855	25
1	2269	57700.894754131899	24
1	2279	57917.022405796764	25
1	2282	57978.215015144722	26
1	2284	57991.655158063508	25
1	2289	58124.528784401872	24
1	2302	58480.24906150727	25
1	2315	58864.533186240098	26
1	2317	58917.788403935842	25
1	2329	59135.016642504946	24
1	2335	59194.72438860436	25
1	2337	59206.69352100619	24
1	2347	59468.77798206892	25
1	2350	59490.688558181122	26
1	2356	59820.890736959986	25
1	2366	60170.387142569999	26
1	2368	60220.729330343769	25
1	2374	60234.019576308316	26
1	2385	60516.858282996499	25
1	2390	60567.582131752856	24
1	2403	60884.712703622521	23
1	2413	61130.592308462936	24
1	2423	61690.669821085566	23
1	2432	61773.739815598025	24
1	2441	61973.827235315866	25
1	2443	62018.6401003116	24
1	2452	62134.444468827144	25
1	2457	62211.755112450213	24
1	2470	62677.645671469935	25
1	2473	62720.325009504011	26
1	2479	62811.331870721765	25
1	2484	62958.043793751085	24
1	2490	63038.420318799878	25
1	2499	63146.412765917943	24
1	2508	63235.457921773365	25
1	2517	63547.740507453255	26
1	2524	63674.390335999096	27
1	2534	63952.630802731605	26
1	2539	64183.550124870771	25
1	2547	64481.9010128529	24
1	2553	64597.897708865794	25
1	2556	64718.485159396725	26
1	2562	64796.313747226836	25
1	2568	64816.491603260653	26
1	2574	65033.965050302604	25
1	2588	65112.913515416911	26
1	2593	65143.912232274302	25
1	2606	65845.824366541224	24
1	2614	66432.821700431519	23
1	2626	66499.482563747251	22
1	2632	66519.596517881763	23
1	2642	66967.99940613898	24
1	2644	67029.11168304609	23
1	2650	67031.198977685994	24
1	2652	67246.050943968976	23
1	2669	67487.270664808464	24
1	2689	67855.29638483014	23
1	2699	68079.78610413486	22
1	2706	68079.853188097027	23
1	2716	68338.13693717867	24
1	2724	68569.005910695679	25
1	2730	68685.097460818116	26
1	2734	68695.745750162038	27
1	2744	68787.880682297209	26
1	2750	68802.345297349306	27
1	2753	68842.07429645768	28
1	2758	68848.593535663672	27
1	2764	68864.241816967724	28
1	2767	69062.439515960682	29
1	2784	69453.274738088199	30
1	2787	69466.042469329682	31
1	2789	69504.611084399903	30
1	2794	69558.666030013579	29
1	2803	69771.347252069395	30
1	2806	69917.106869385726	31
1	2809	70008.024213534419	32
1	2814	70099.720839763172	31
1	2820	70124.438879843089	32
1	2831	70199.76142843022	33
1	2833	70214.394205160084	32
1	2847	70609.719763141284	31
1	2861	70798.347638430169	32
1	2868	71062.791173988712	33
1	2877	71589.659610935274	34
1	2879	71597.427280166763	33
1	2884	71680.019143324457	32
1	2890	71800.998517877322	33
1	2893	71863.64258037362	34
1	2906	72106.459889872158	33
1	2917	72413.374725317694	32
1	2923	72448.375695591114	33
1	2929	72522.442652754603	34
1	2932	72677.88557752164	35
1	2935	72716.983890308455	36
1	2937	72747.332050924766	35
1	2959	73157.084036138067	34
1	2965	73290.409687724956	35
1	2968	73317.136378351952	36
1	2974	73503.636556154229	35
1	2980	73512.375786242738	36
1	2986	73716.941254902495	37
1	3000	73962.165202340759	38
1	3002	74063.176939518768	37
1	3007	74145.744136082167	36
1	3013	74538.717792806078	37
1	3016	74617.522848734146	38
1	3018	74649.870722953342	37
1	3030	75025.633891507629	36
1	3043	75553.266232319288	35
1	3051	75778.367998464192	34
1	3072	76135.521837259283	35
1	3081	76374.752369750813	36
1	3095	76605.67801972257	35
1	3100	76688.637277091034	34
1	3105	76757.906054746519	33
1	3111	76983.145900645308	34
1	3114	77098.776649555954	35
1	3125	77275.974142261497	36
1	3127	77330.023279979937	35
1	3133	77403.122254982819	36
1	3143	77569.05669819402	37
1	3146	77760.885307570993	38
1	3149	78081.018671040963	39
1	3155	78162.61959352919	38
1	3160	78274.403988387082	37
1	3169	78632.626743155415	38
1	3171	78754.20148435805	37
1	3184	79015.489595915806	38
1	3193	79186.071191042821	37
1	3199	79603.279732777121	38
1	3205	79770.660716861598	37
1	3210	79775.8234206062	36
1	3225	80020.576844237904	35
1	3231	80214.463700812575	36
1	3240	80545.85150796745	35
1	3249	80636.609212638457	34
1	3259	80777.620893966374	35
1	3262	80990.072439408466	36
1	3274	81122.309711476947	35
1	3280	81135.274069470197	36
1	3283	81377.962143050969	37
1	3293	81549.404698021822	36
1	3304	81975.926927425126	35
1	3309	82063.965018469487	34
1	3322	82473.849030699133	35
1	3331	82811.753283290305	34
1	3337	82897.410756619514	35
1	3344	83044.727059890851	36
1	3349	83079.730085184956	35
1	3355	83123.37366347011	36
1	3358	83244.431306803134	37
1	3368	83577.702129300331	36
1	3383	84003.598179107645	35
1	3388	84253.43957871587	34
1	3397	84381.075622307256	35
1	3403	84534.510075267052	34
1	3412	84570.774703523351	35
1	3425	85240.099466586133	34
1	3431	85296.636537218569	35
1	3437	85541.802145150096	36
1	3440	85589.779160371333	37
1	3442	85628.363165387997	36
1	3448	85766.334587416759	37
1	3451	85770.236237961736	38
1	3453	85875.429920772249	37
1	3465	85996.827475618219	36
1	3484	86796.783381885031	35
1	3497	86957.581824150064	36
1	3499	86985.357780274162	35
1	3505	87150.327150753843	36
1	3513	87356.1996414453	35
1	3519	87425.85970548914	36
1	3533	87610.279722942913	37
1	3539	87732.900796068075	38
1	3554	88295.566285204256	37
1	3563	88648.182821647105	38
1	3565	88654.165005790228	37
1	3571	88702.859107848563	38
1	3573	88737.761835524461	37
1	3589	89051.763570644329	38
1	3592	89157.676420104302	39
1	3603	89339.219430649955	40
1	3606	89469.735567726513	41
1	3608	89481.377925709048	40
1	3614	89518.887891547109	41
1	3617	89620.744865030369	42
1	3626	89863.353990761677	41
1	3632	89888.513728473483	42
1	3640	90205.9047405828	41
1	3654	90623.03652302955	42
1	3657	90731.527961037249	43
1	3659	90907.398414870838	42
1	3664	91153.69050135293	41
1	3676	91342.889149309613	42
1	3685	91866.71942873264	41
1	3700	92231.625640852535	40
1	3705	92533.639957716803	39
1	3711	92655.659338294551	40
1	3718	92755.658806481161	41
1	3721	92897.61088861548	42
1	3727	93042.602915725007	43
1	3734	93171.448397540831	44
1	3736	93367.026065837706	43
1	3741	93383.481506559647	42
1	3750	93698.345909541631	41
1	3763	94124.479426903299	40
1	3769	94204.169048428864	41
1	3771	94216.709773147593	40
1	3780	94399.845353722731	39
1	3806	95213.541127586896	38
1	3811	95442.864303480483	37
1	3820	95639.943502427028	38
1	3823	95679.140557760168	39
1	3829	95797.893897190804	38
1	3842	96085.222400820266	39
1	3844	96111.575724690802	38
1	3853	96489.533816043402	37
1	3862	96759.601950137104	36
1	3868	96819.187184251979	37
1	3871	96918.032715480862	38
1	3873	96946.711510255582	37
1	3893	97630.857914885155	36
1	3898	97751.156422549973	35
1	3906	98033.159024952139	34
1	3912	98301.71801624044	35
1	3929	98473.663833610363	34
1	3935	98499.297679413197	35
1	3944	98798.369785014537	36
1	3952	99183.50290941831	35
1	3961	99314.677483108054	34
1	3970	99446.201292790335	35
1	3973	99702.452909164116	36
1	3985	99997.37159067171	35
1	3997	100104.028691089937	36
1	4006	100492.522830287154	35
1	4012	100503.100880442457	36
1	4015	100552.104856225879	37
1	4018	100569.292952553308	38
1	4020	100580.627661662291	37
1	4029	100760.043785820625	38
1	4043	100981.625202848537	39
1	4046	100986.171594123321	40
1	4052	101184.532352773122	39
1	4061	101274.82906670463	40
1	4063	101456.310726039226	39
1	4068	101473.64432975107	38
1	4074	101561.634143735198	39
1	4077	101588.894613509104	40
1	4088	102202.823962650954	41
1	4097	102342.389065412454	40
1	4105	102632.60495635506	39
1	4110	102717.650355337347	38
1	4121	102965.285312173538	37
1	4145	103548.036378896023	36
1	4151	103596.028011092651	37
1	4153	103698.418742621432	36
1	4158	103846.610228115343	35
1	4164	103848.225797685735	36
1	4167	103875.232793923848	37
1	4170	103886.946598338493	38
1	4177	104216.916844943495	39
1	4186	104411.187072068567	38
1	4199	104876.782124882469	39
1	4201	104996.467740026884	38
1	4207	105047.401777915446	39
1	4212	105226.627890508781	38
1	4232	105774.155242078121	37
1	4246	106123.261553881849	36
1	4259	106320.468041729083	37
1	4264	106513.149146897368	36
1	4274	106611.737571886947	37
1	4277	106733.237568395787	38
1	4288	106887.855419967483	37
1	4293	106967.35429168504	36
1	4299	107051.727073361527	37
1	4302	107071.605988270603	38
1	4309	107241.893665757062	39
1	4318	107322.782649749589	40
1	4327	107587.84659381413	39
1	4333	107677.678930656921	40
1	4340	107711.620627635186	41
1	4346	108181.277621820219	40
1	4352	108221.02063262212	41
1	4355	108267.686930296507	42
1	4357	108344.023590607683	41
1	4366	108643.814997956316	40
1	4379	108751.643845659327	41
1	4382	108780.960391080954	42
1	4387	109258.507093753316	41
1	4396	109511.35234853078	40
1	4402	109675.303829972578	41
1	4408	110149.226538878094	40
1	4417	110317.249124975525	39
1	4423	110461.530961928501	40
1	4433	110900.893361823793	39
1	4441	111105.248244049143	38
1	4446	111355.301788685493	37
1	4452	111421.252980370212	38
1	4465	111863.150397626843	37
1	4479	112081.479955863323	36
1	4485	112132.534392452926	37
1	4490	112266.819128872476	36
1	4504	112375.264631954574	37
1	4514	112462.144740828676	38
1	4520	112597.125930688588	39
1	4522	112660.117255238976	38
1	4527	112959.978135743759	37
1	4540	113096.622958070979	38
1	4542	113228.009037578594	37
1	4548	113320.125457171666	38
1	4554	113371.178146502163	37
1	4569	113759.360444446675	36
1	4579	113828.436335639352	37
1	4586	114033.789661565177	38
1	4588	114077.058486756097	37
1	4597	114216.597143043937	38
1	4603	114275.525225132231	39
1	4616	114524.223607502527	38
1	4621	114624.983490647864	37
1	4627	114782.17436542947	38
1	4640	115266.070301494504	39
1	4642	115414.476806664999	38
1	4650	115542.751488441717	37
1	4659	115663.075304789118	36
1	4665	115724.016119753405	37
1	4668	115729.212819275022	38
1	4671	116113.725982181179	39
1	4685	116239.765798248208	40
1	4691	116312.063484884958	39
1	4703	116733.749815129583	40
1	4705	116825.579210266587	39
1	4710	117178.449475117187	38
1	4719	117314.333479445077	37
1	4728	117545.235834175837	36
1	4745	117677.296590701486	37
1	4748	117926.774739580502	38
1	4751	118104.952915500113	39
1	4753	118288.879684791128	38
1	4758	118400.736754465498	37
1	4774	118723.40340878882	38
1	4776	118745.515724977595	37
1	4799	119142.19034729309	38
1	4805	119296.630050953127	37
1	4820	119615.291245225162	38
1	4823	119682.305634404693	39
1	4825	119708.952292202157	38
1	4835	119829.635024158343	39
1	4837	119839.538551703255	38
1	4851	120450.30510820832	39
1	4853	120464.682685084801	38
1	4859	120760.227153079703	39
1	4865	120869.36935719446	40
1	4867	120877.89069439622	39
1	4883	121308.789356712368	38
1	4889	121343.429871177768	39
1	4892	121513.555175492285	40
1	4894	122034.566060476165	39
1	4909	122414.51341384428	38
1	4915	122644.890099168979	39
1	4917	122654.185842158433	38
1	4926	122739.546357130748	37
1	4943	123594.519175167892	38
1	4949	123793.389774573617	37
1	4954	123900.168236777347	36
1	4963	124212.515491291997	35
1	4972	124469.414795926338	36
1	4988	124949.083282023785	35
1	4993	124982.037012971588	34
1	4999	125083.304506354489	35
1	5002	125316.852069446994	36
1	5008	125365.840888437044	35
1	5019	125655.919929955271	34
1	5031	125853.740350896143	33
1	5044	126166.78923550923	34
1	5046	126187.137922369104	33
1	5076	126707.621127793477	34
1	5078	126834.65117803232	33
1	5084	126901.048013974154	34
1	5086	126982.861679753405	33
1	5092	127036.243969035731	34
1	5098	127161.37922446666	35
1	5100	127183.401052703731	34
1	5106	127254.329656823926	35
1	5109	127304.914887009243	36
1	5132	127820.122538231473	35
1	5138	127941.621795714524	36
1	5141	127963.406770609736	37
1	5146	128095.609096496947	36
1	5152	128101.215520493483	37
1	5154	128141.051042972249	36
1	5164	128321.79015297778	37
1	5167	128325.41474200709	38
1	5173	128902.447099772863	37
1	5179	129007.552593326135	38
1	5192	129089.389845955597	39
1	5194	129133.926716258866	38
1	5199	129245.128663335155	37
1	5205	129296.081703730142	38
1	5228	130334.15580218064	37
1	5234	130371.69783084865	38
1	5236	130508.497383887108	37
1	5242	130740.430989484974	38
1	5244	130802.993703995017	37
1	5256	131155.186865003097	38
1	5259	131163.117301182142	39
1	5269	131518.976988860987	38
1	5283	131950.447408774013	39
1	5285	132133.533741658713	38
1	5291	132160.585404198421	39
1	5293	132320.446817421935	38
1	5298	132440.008807646228	37
1	5318	133045.36234398761	36
1	5326	133181.828448105253	35
1	5341	133604.413256848348	34
1	5347	133691.858865039747	35
1	5350	134053.085760659903	36
1	5366	134697.72881629334	35
1	5372	134712.849543730063	36
1	5375	134716.927804439477	37
1	5377	134846.294586475588	36
1	5383	134854.830983102171	37
1	5397	135053.043735304965	36
1	5415	135571.348404436637	37
1	5418	135692.963610926509	38
1	5420	135701.522040621958	37
1	5425	135849.9837023468	36
1	5433	136091.84203613938	35
1	5439	136120.308708958022	36
1	5445	136398.051417229818	37
1	5448	136398.517548978867	38
1	5454	136422.052739043162	39
1	5457	136562.054961951007	40
1	5480	137012.62904924166	39
1	5488	137318.251929416902	38
1	5498	137482.216525724592	39
1	5506	137540.458836335849	38
1	5515	137675.664933187437	39
1	5528	137979.816567639994	40
1	5531	138020.782573323273	41
1	5534	138043.124590116623	42
1	5537	138108.119650509994	43
1	5539	138154.416284015562	42
1	5545	138236.118534327893	43
1	5557	138529.755894502742	42
1	5565	138738.573456614859	41
1	5571	138774.108100856002	42
1	5574	138828.718378171323	43
1	5576	139069.153730202626	42
1	5586	139131.067485475514	43
1	5589	139137.781205319314	44
1	5600	139563.568241686586	45
1	5602	139590.279847763596	44
1	5607	139754.3381793929	43
1	5612	139817.279287468291	42
1	5628	140054.17963996561	43
1	5631	140108.056584563257	44
1	5645	140439.09929082135	43
1	5653	140782.264189364506	42
1	5658	140804.953877957698	41
1	5671	141164.132014580051	42
1	5693	141623.658942621691	43
1	5700	141818.995872958223	44
1	5702	141970.031643829889	43
1	5707	142013.394326739174	42
1	5713	142081.346814866936	43
1	5715	142239.410361422343	42
1	5724	142311.682379413568	43
1	5727	142355.484717403429	44
1	5736	142466.092562278383	45
1	5763	142864.490757661224	46
1	5765	142930.841002850023	45
1	5770	142949.37310492026	44
1	5782	143271.852679323687	45
1	5792	143504.629959728242	46
1	5796	143597.359625719137	45
1	5807	143699.337395084382	46
1	5810	143763.801584881	47
1	5812	143797.883990312112	46
1	5818	143802.263863631393	47
1	5821	143810.537002075342	48
1	5827	144099.596569298756	49
1	5830	144200.610238428832	50
1	5833	144251.540632610501	51
1	5835	144303.889964087096	50
1	5845	144340.750000627376	51
1	5848	144456.804784123137	52
1	5854	144829.983776056788	51
1	5866	145319.398358294857	50
1	5872	145489.902235370314	51
1	5878	145576.322942957443	50
1	5891	146222.516464433952	51
1	5894	146381.22593558783	52
1	5896	146382.220929519854	51
1	5908	146683.027808413026	50
1	5925	147066.884354376957	51
1	5927	147167.624415312123	50
1	5932	147289.375805061427	49
1	5951	147644.940576527344	50
1	5953	147782.525893844314	49
1	5966	148534.269644000933	50
1	5971	148580.810633696776	49
1	5977	148673.846017388683	50
1	5991	148902.240027312587	51
1	5993	148950.495318805915	50
1	5998	148993.351684244	49
1	6004	149039.393210930366	50
1	6007	149259.885104086458	51
1	6022	149507.332788895976	50
1	6045	149922.0760480229	51
1	6047	150152.243430748232	50
1	6053	150164.937797422305	51
1	6056	150172.970706805915	52
1	6059	150199.233731749553	53
1	6065	150323.607560251531	54
1	6067	150389.808790868264	53
1	6075	150578.337029054921	52
1	6081	150647.858131073801	53
1	6083	150762.517760455259	52
1	6092	150804.285481541437	53
1	6119	151315.381289994504	52
1	6125	151330.728813402414	53
1	6127	151437.680293142911	52
1	6133	151440.22667275775	53
1	6139	151592.198568899446	54
1	6149	151892.414088737434	55
1	6152	151919.498992217526	56
1	6154	152240.493079114821	55
1	6160	152245.716907335645	56
1	6166	152287.501080402755	55
1	6172	152293.873943358764	56
1	6185	152919.703200929027	55
1	6191	152960.734541973157	56
1	6204	153220.136172361943	57
1	6206	153223.708841007319	56
1	6211	153581.469164187249	55
1	6222	153860.120417367318	54
1	6231	154044.75749718782	53
1	6248	154374.677751102738	54
1	6251	154418.816298426993	55
1	6258	154541.87507788809	56
1	6261	154631.362808727788	57
1	6270	155039.325423721584	58
1	6275	155240.498638725069	57
1	6280	155309.887636540109	56
1	6288	155652.778069663909	55
1	6294	155724.185467687133	56
1	6301	155769.968537016682	57
1	6307	155967.966929851477	58
1	6309	155971.217917375427	57
1	6319	156226.300729602529	58
1	6331	156552.497707044822	57
1	6337	156712.551349058071	58
1	6346	156911.781678678119	57
1	6352	156937.022413608723	58
1	6354	156998.017143080172	57
1	6363	157235.791752774403	58
1	6366	157250.834238700318	59
1	6386	157895.694058125955	58
1	6391	158126.995585992584	57
1	6397	158188.896724510312	58
1	6403	158414.781344164528	59
1	6409	158585.283983262699	60
1	6411	158620.53613520616	59
1	6423	158882.045794509468	58
1	6429	158966.760326096477	59
1	6438	159076.045716212714	58
1	6454	159466.124167840773	59
1	6456	159531.644464077545	58
1	6474	159679.643045509395	57
1	6480	159743.243678661403	58
1	6483	159784.669224837703	59
1	6486	159811.203039856327	60
1	6500	159912.362958358881	61
1	6505	160147.264387918288	60
1	6513	160190.755965521676	59
1	6519	160514.052349293861	60
1	6525	160536.444706315336	59
1	6535	160601.271798459865	60
1	6538	160604.905147465815	61
1	6541	160668.215159855031	62
1	6548	160844.69231803476	63
1	6555	161024.483157667429	64
1	6560	161285.580392310513	63
1	6565	161448.264084200958	62
1	6580	161785.863986084399	61
1	6586	161837.780003465105	62
1	6589	161957.103515939808	63
1	6595	162370.510922603426	62
1	6607	162563.094191806043	61
1	6616	162656.534735103535	62
1	6618	162815.873582627786	61
1	6638	163384.086426294992	60
1	6649	163596.645676687477	59
1	6658	163764.972397730795	60
1	6661	163917.548308768451	61
1	6668	163965.974068710902	62
1	6670	164076.090947122896	61
1	6679	164324.877148976667	60
1	6684	164357.855039606033	59
1	6690	164476.298297968726	60
1	6693	164556.286250126797	61
1	6710	164948.961794758376	62
1	6716	165160.580938400818	61
1	6721	165223.594265155146	60
1	6727	165246.645583096081	61
1	6730	165260.262474423868	62
1	6732	165347.703225793479	61
1	6750	166028.309196563089	60
1	6766	166086.479712388332	61
1	6769	166103.987325099829	62
1	6776	166384.302652380436	63
1	6778	166441.400682985945	62
1	6783	166515.508532680689	61
1	6800	166903.406324939248	62
1	6803	166938.650864099156	63
1	6812	167323.440842231898	62
1	6820	167439.972059199238	61
1	6830	167715.735287909129	62
1	6832	167893.039447328194	61
1	6841	168329.777391957479	62
1	6847	168393.913808934042	61
1	6853	168395.586902056141	62
1	6855	168430.903600439592	61
1	6869	168951.597719909467	62
1	6878	169249.207668805613	61
1	6884	169519.119243652154	62
1	6893	169896.946987177828	61
1	6898	169903.867842251598	60
1	6904	170039.752064101711	61
1	6917	170760.47823422414	60
1	6926	170910.12508700876	61
1	6928	171005.663067897433	60
1	6937	171359.194418717339	59
1	6943	171416.958100962387	60
1	6959	172101.166573430994	59
1	6970	172347.666592698663	58
1	6979	172628.994690014465	59
1	6982	172661.922429238249	60
1	6985	172746.517437118415	61
1	6995	172948.522145491257	60
1	7004	173028.181125234515	61
1	7006	173081.23224528844	60
1	7028	173619.087022243186	59
1	7033	173743.916272617527	58
1	7049	174063.674955541737	59
1	7052	174083.232657586465	60
1	7054	174114.928414704442	59
1	7060	174170.214651913889	60
1	7072	174406.084664935303	61