version 2
run Iteration-21-20200521-09:52:06-10464
attr configname Iteration
attr datetime 20200521-09:52:06
attr experiment Iteration
attr inifile omnetpp.ini
attr iterationvars "$i=2, $j=9, $0=15-(2+9)"
attr iterationvarsf i=2,j=9,15-(2+9)-
attr measurement "$i=2, $j=9, $0=15-(2+9)"
attr network Network
attr processid 10464
attr repetition 0
attr replication #0
attr resultdir results
attr runnumber 21
attr seedset 21
itervar i 2
itervar j 9
param **.resourcePool.amount 2
param **.resourcePool1.amount 9
param **.resourcePool2.amount 15-(2+9)
param **.source.interArrivalTime exponential(6min)
param **.delay.delay uniform(4min,28min)
param **.delay1.delay uniform(10min,28min)
param **.delay2.delay uniform(4min,16min)
param **.allocate.resourceModuleName "\"Network.resourcePool\""
param **.allocate1.resourceModuleName "\"Network.resourcePool1\""
param **.allocate2.resourceModuleName "\"Network.resourcePool2\""
param **.deallocate.resourceModuleName "\"Network.resourcePool\""
param **.deallocate1.resourceModuleName "\"Network.resourcePool1\""
param **.deallocate2.resourceModuleName "\"Network.resourcePool2\""
param **.router.randomGateIndex "uniform(0, 1) > 0.2 ? 0 : 1"

vector 0 Network.allocate queueLength:vector ETV
attr interpolationmode sample-hold
attr title "queue length, vector"
vector 1 Network.allocate1 queueLength:vector ETV
attr interpolationmode sample-hold
attr title "queue length, vector"
vector 2 Network.allocate2 queueLength:vector ETV
attr interpolationmode sample-hold
attr title "queue length, vector"
vector 3 Network.sinkStat lifeTime:vector ETV
attr interpolationmode none
attr title "lifetime of arrived jobs, vector"
attr unit s
vector 4 Network.sink lifeTime:vector ETV
attr interpolationmode none
attr title "lifetime of arrived jobs, vector"
attr unit s
0	0	0	0
0	15	1013.958121492289	1
0	17	1096.964959912262	2
0	23	1527.613526930424	3
0	25	1589.018017487962	4
0	31	1718.591298039241	5
0	33	1874.263644654985	4
0	38	2111.127081587207	5
0	40	2604.350159269508	4
0	45	2616.393464350247	3
0	50	2737.266402278382	4
0	56	2956.575643749082	3
0	65	3388.441987888062	2
0	74	3464.629143105891	3
0	76	3684.721604873177	2
0	93	4168.852115080798	1
0	98	4182.07109791792	2
0	100	4356.640243341717	3
0	106	4480.476791318608	4
0	112	4784.216694022204	5
0	130	5317.219365377661	4
0	135	5502.247787409568	3
0	140	5535.018643677107	4
0	142	5796.757579617013	5
0	144	5908.56222612294	6
0	146	5974.703393085548	7
0	148	6006.750361970979	8
0	154	6134.48143238514	9
0	164	6254.719838172448	10
0	170	6590.62692651939	11
0	172	6654.619747921082	12
0	178	6837.736533277774	11
0	183	6872.175479483541	10
0	192	6937.605162186451	11
0	194	7390.79377877816	10
0	199	7447.654533335561	11
0	201	7559.730347951039	12
0	207	8141.776039403821	13
0	209	8263.985872854229	12
0	226	8821.392847065489	13
0	232	8853.77528581127	12
0	241	9088.143078664151	13
0	247	9443.954617370602	12
0	256	9911.147988821501	13
0	258	9979.302308925534	12
0	267	10389.601020243701	11
0	272	10435.988020176184	12
0	274	10446.507305376878	13
0	276	10878.573056571496	14
0	282	10997.580528127058	15
0	292	11446.62774174656	16
0	294	11456.103151583219	15
0	307	11827.884280633864	14
0	316	12064.124023384943	15
0	322	12385.501506304175	16
0	324	12471.708499108193	15
0	329	12556.34463022753	14
0	346	12906.148327578542	13
0	351	13168.109459133077	14
0	353	13268.860035670895	15
0	363	13686.487927831522	16
0	365	13712.581326508069	15
0	370	13913.418400104514	16
0	372	13943.73986160641	17
0	378	14104.747170534668	16
0	383	14165.998108480063	17
0	389	14517.120931551898	16
0	402	14602.034881902302	17
0	412	14999.005029940153	16
0	421	15284.77020966439	17
0	423	15299.919221373892	18
0	425	15578.998329297746	17
0	430	15589.030657176612	16
0	439	15758.320018421832	17
0	449	15958.461595200723	18
0	467	16659.492344688986	19
0	469	16732.193157815481	18
0	478	16749.360246179295	19
0	484	16904.128473923467	20
0	486	16987.047477354048	19
0	495	17468.607202178988	20
0	497	17522.674574845577	19
0	502	17751.870930323886	20
0	504	17853.796663151472	21
0	510	17988.918803919791	20
0	519	18223.485902849001	21
0	525	18353.883134053955	22
0	527	18576.091087002992	21
0	536	18758.932878052306	22
0	538	18785.046488660094	23
0	540	19065.467063813411	24
0	546	19104.578260214175	23
0	551	19128.302337963819	22
0	556	19395.12656714126	21
0	569	19613.460201243477	22
0	571	20101.377052803278	21
0	576	20157.315503555183	22
0	586	20266.986578845526	21
0	595	20425.141113363829	22
0	613	20528.156529207468	21
0	626	20985.38194655323	20
0	635	21252.613477638851	21
0	641	21377.962710254933	20
0	654	21932.004054219569	19
0	659	22032.179871805745	20
0	677	22535.86267087767	21
0	683	22636.96107274735	20
0	692	22809.498400346483	19
0	697	22847.089650233555	20
0	699	23241.513548306409	21
0	705	23361.852630917253	22
0	707	23566.72903328085	21
0	724	23894.120365491692	22
0	734	24163.684756190623	21
0	739	24408.945474600043	22
0	741	24546.485599760423	23
0	743	24640.017028599409	24
0	745	24727.236692112625	23
0	750	24816.172638940148	24
0	752	24932.505389649338	25
0	758	24969.571014561797	24
0	763	25066.498112581282	25
0	765	25318.351957512411	26
0	767	25442.741223861218	25
0	776	25665.335261922177	26
0	778	25718.598647388485	27
0	780	25731.929922600787	28
0	786	25895.909249844555	29
0	788	25940.080648368712	30
0	790	25943.148468743227	31
0	804	26201.303412189931	32
0	806	26243.448943146722	33
0	816	26613.315888338829	32
0	821	26662.657628087546	33
0	831	27056.942378231311	34
0	833	27067.098945368767	33
0	838	27182.63321371396	34
0	840	27319.817085296954	33
0	845	27328.835672064524	34
0	855	27991.571308565423	35
0	861	28061.585154075861	34
0	866	28096.239121070009	35
0	868	28119.545644446623	36
0	874	28424.722569746105	37
0	876	28493.229261406805	36
0	881	28545.22648599288	37
0	887	28615.878030237496	36
0	892	28660.624677755453	37
0	894	28808.944890489703	38
0	900	29144.904300087959	39
0	902	29293.198033227134	40
0	904	29443.859720263125	41
0	906	29447.659529664661	40
0	919	29512.915554768373	41
0	925	29624.075358548087	42
0	939	30022.037989710212	41
0	948	30390.810127899207	42
0	950	30410.700641040714	43
0	952	30525.955243948795	44
0	954	30656.448114172663	43
0	959	30675.866360464579	44
0	961	30727.32455972824	45
0	963	30790.739727636201	46
0	973	31333.059784871281	45
0	978	31664.595265344824	44
0	987	31966.631339127004	45
0	1001	32579.743444126786	44
0	1014	32982.727699198868	43
0	1019	33239.003700687482	44
0	1021	33429.200728152634	43
0	1034	33682.389724173691	42
0	1039	33779.075432196087	43
0	1045	34440.72537729144	44
0	1055	34679.272307922537	45
0	1057	34827.866841059865	44
0	1070	35221.518602696003	43
0	1075	35285.107019909766	42
0	1088	35767.28677650172	43
0	1090	35863.895572302263	44
0	1096	35956.387382314785	45
0	1102	36220.204500822656	46
0	1108	36477.506942563441	47
0	1110	36518.466211861662	48
0	1112	36591.0665026243	47
0	1117	36595.185718604743	48
0	1127	36846.497113768698	47
0	1140	37776.764173434284	48
0	1146	38004.757837795761	47
0	1155	38297.930915934923	48
0	1157	38307.050734487118	47
0	1166	38501.986005651608	48
0	1168	38560.113625445512	47
0	1177	39195.903782523621	48
0	1179	39234.758967382439	49
0	1197	39723.352522061315	48
0	1202	39917.152558114498	49
0	1204	39956.981086347939	48
0	1213	40147.886201285866	47
0	1218	40355.092946000733	48
0	1220	40371.342475478293	47
0	1225	40388.708461363088	48
0	1227	40392.250732698587	47
0	1232	40515.217694767695	48
0	1242	40945.966687080206	47
0	1247	41223.147449941579	48
0	1249	41323.988054697893	49
0	1259	41579.836034813271	50
0	1261	41641.964977004675	49
0	1270	41785.227323338384	50
0	1276	41819.000321691141	51
0	1281	41966.17199777163	52
0	1283	42001.437028287763	53
0	1290	42078.010201889921	54
0	1300	42236.038324300887	53
0	1309	42304.902504601626	52
0	1314	42550.078486808457	53
0	1324	42933.29547840461	52
0	1329	43012.7383908152	51
0	1338	43114.761346936383	52
0	1348	43447.473721093341	53
0	1350	43473.901013292479	54
0	1352	43533.408403762727	53
0	1377	44321.574773703458	52
0	1382	44337.193538279383	51
0	1399	45275.54900400576	52
0	1401	45436.209342489391	53
0	1403	45458.99970405294	54
0	1405	45496.360811435728	53
0	1414	45776.450506959798	52
0	1419	45846.95333777855	53
0	1425	46618.111715455296	52
0	1434	46697.01589693745	53
0	1444	47027.386404567509	52
0	1457	47304.872849130183	51
0	1466	47415.321518842819	50
0	1471	47448.923278362805	51
0	1481	48300.724064372997	52
0	1483	48386.631785932201	53
0	1489	48629.866846718937	52
0	1498	48737.68719467217	51
0	1507	48909.970829890221	50
0	1512	49234.319722126698	51
0	1514	49249.693295500616	52
0	1532	49719.571509350779	51
0	1545	50279.730133552792	50
0	1554	50427.947031588405	49
0	1563	50708.8147345377	50
0	1581	51404.420217902511	49
0	1586	51610.073062327562	50
0	1588	51725.036245611253	49
0	1597	51802.895817522047	50
0	1603	52016.471664456252	51
0	1605	52047.754456523213	52
0	1611	52161.772284820285	53
0	1613	52228.403891724291	52
0	1622	52529.975053860117	53
0	1628	52657.643822238892	52
0	1637	53034.177450346186	53
0	1643	53339.730385009887	52
0	1648	53349.613924864338	53
0	1654	53541.112967118545	54
0	1656	53718.969818272739	53
0	1665	54023.039669858004	54
0	1667	54024.246667654365	53
0	1676	54056.641213361862	52
0	1685	54327.865971137205	53
0	1695	54760.166832649261	52
0	1700	55041.089247483861	53
0	1706	55100.941536658566	54
0	1716	55152.236751605513	53
0	1721	55234.881807606885	54
0	1731	55724.162971706242	53
0	1740	55806.457419819232	54
0	1742	56122.581254941168	53
0	1747	56123.243688311556	54
0	1753	56185.328063646618	55
0	1759	56369.698599589324	56
0	1765	56446.503175225191	57
0	1775	57007.171505012662	56
0	1796	57748.376299504879	55
0	1801	57769.207914759647	56
0	1807	58294.929266110569	57
0	1813	58423.360486061425	56
0	1818	58753.671402175668	55
0	1823	59041.324669786842	54
0	1828	59092.329898764137	53
0	1837	59281.341817954298	54
0	1839	59585.901150068862	55
0	1853	59833.702078008206	54
0	1862	60108.785839666001	55
0	1864	60161.211943267751	56
0	1878	60403.564215068463	55
0	1883	60553.651980602296	54
0	1888	60660.675949423996	55
0	1890	60674.578530852441	54
0	1899	60879.208530973803	55
0	1901	60939.242715168251	56
0	1907	61217.202779919668	57
0	1909	61267.663840570601	56
0	1918	61400.47064688048	57
0	1920	61474.995302589785	58
0	1922	61486.300198685178	59
0	1924	61530.42359373823	58
0	1929	61532.491147544924	57
0	1942	61694.060512810675	58
0	1948	61890.580349557152	59
0	1954	61937.254712209078	60
0	1960	62211.167885207685	59
0	1981	63008.739115300268	60
0	1987	63056.415657480059	61
0	1993	63157.470673833732	60
0	2002	63516.415546339695	59
0	2011	63813.940763690623	58
0	2020	63876.021452979395	59
0	2030	64378.496719368848	58
0	2039	64859.929881760034	57
0	2048	65089.208555918877	56
0	2057	65336.407656290683	55
0	2066	65468.305229272455	56
0	2068	65545.05096837479	57
0	2070	65611.41680829086	58
0	2076	65704.007056503601	59
0	2078	65747.911573493037	58
0	2099	66341.805491287951	57
0	2112	66742.414963870632	58
0	2114	66896.044548855835	59
0	2116	67165.689131495478	60
0	2118	67234.818124127333	59
0	2127	67391.918727413866	58
0	2136	67642.64363239402	57
0	2149	68121.154294154043	58
0	2151	68160.491142076491	59
0	2153	68217.903991297934	58
0	2162	68516.635417890493	57
0	2167	68528.002443033214	58
0	2169	68595.845853673704	59
0	2179	68934.495569051359	58
0	2188	69390.554051500503	57
0	2201	69733.860055648837	56
0	2230	70396.192849383805	55
0	2235	70410.00617320532	54
0	2240	70526.75759800674	55
0	2250	71056.714569466476	56
0	2252	71081.527419750337	55
0	2257	71155.945115910628	56
0	2263	71182.803668149863	55
0	2272	71426.76753230569	56
0	2278	71711.926590369224	57
0	2308	72643.550414320771	56
0	2313	72697.710007534479	55
0	2318	72994.930933228553	56
0	2324	73105.224987499275	57
0	2326	73201.796383520853	58
0	2328	73248.442865748779	59
0	2334	73416.911465014279	60
0	2336	73458.142577467645	61
0	2338	73730.65129432187	60
0	2351	74242.984830726628	59
0	2360	74815.928659805214	58
0	2365	74978.671922151689	57
0	2370	75155.659546808457	56
0	2375	75170.757088457267	57
0	2385	75470.617034052752	58
0	2387	75488.762237158362	57
0	2392	75559.564535701561	58
0	2422	76461.45494495078	59
0	2428	76512.272737206077	58
0	2437	76679.068970897357	59
0	2439	76682.639910880935	60
0	2445	76955.371649366548	61
0	2447	77129.220829893593	60
0	2452	77301.86881417958	61
0	2458	77868.181096383488	60
0	2467	78251.612520319168	59
0	2476	78622.675963023318	60
0	2478	78642.988320069442	61
0	2484	78972.446001627832	62
0	2490	79273.230266937172	61
0	2495	79317.927787218933	60
0	2504	79458.448383343349	61
0	2506	79760.843809236531	60
0	2523	79977.821826047152	61
0	2525	80031.732266799664	60
0	2530	80052.73309035906	61
0	2536	80436.034600295348	62
0	2538	80527.942443227468	63
0	2548	80976.306933414881	62
0	2561	81406.27024899528	61
0	2570	81805.882812341918	62
0	2572	81890.412443977376	63
0	2578	81985.885771953618	62
0	2583	82128.952766135461	63
0	2589	82468.1065059272	64
0	2591	82514.668525446896	63
0	2596	82591.789832871345	64
0	2598	82596.586132055991	65
0	2612	83008.851190869455	64
0	2617	83144.104632136595	65
0	2627	83474.074060000518	66
0	2629	83620.46211234585	65
0	2634	83775.143149149363	64
0	2647	84145.098402154391	63
0	2664	84832.171650634265	62
0	2677	85122.278554780774	63
0	2683	85223.292505995488	62
0	2688	85404.009202614276	63
0	2690	85404.613474893347	64
0	2692	85437.798303951263	65
0	2694	85513.711644475108	64
0	2699	85608.209035060448	65
0	2709	85764.925357190571	66
0	2711	85968.229674670317	67
0	2713	85995.88777783618	66
0	2722	86212.408650786948	67
0	2728	86333.999585065978	68
0	2730	86693.390369244392	69
0	2732	86706.642934855765	68
0	2737	86800.102271309837	69
0	2743	86946.48800908234	70
0	2749	87028.357448375513	71
0	2755	87416.532893770492	70
0	2760	87469.408029344624	69
0	2781	88213.408023668762	70
0	2783	88276.262585365331	69
0	2788	88281.34834175704	70
0	2790	88309.097446080988	69
0	2807	88917.27987352051	70
0	2813	89005.368329911907	71
0	2815	89040.075889758845	72
0	2817	89144.846970218059	73
0	2819	89213.062683039462	72
0	2832	89633.09204796892	73
0	2838	89728.546359156018	72
0	2847	89960.126768344199	71
0	2852	90116.86454818741	72
0	2870	90870.027832680499	71
0	2879	91178.742061996018	70
0	2884	91273.414335463887	69
0	2889	91588.565485134201	70
0	2891	91588.761773955768	69
0	2904	91681.817818177282	70
0	2914	92000.803716087168	71
0	2916	92221.3608296807	72
0	2926	92742.399412685191	71
0	2939	93009.014797200209	70
0	2948	93555.347373935027	71
0	2950	93578.322629102623	70
0	2967	93844.308132090359	71
0	2969	94000.650138583726	70
0	2974	94021.036909864831	71
0	2976	94097.085166421563	72
0	2990	94902.036808312988	71
0	2995	95005.672616165823	70
0	3008	95633.663312277087	71
0	3010	95843.723092552966	70
0	3027	96094.64850170723	71
0	3033	96338.767534957545	72
0	3035	96455.990353081787	73
0	3037	96497.201662280714	72
0	3050	97186.048624914831	71
0	3055	97231.632494845545	70
0	3060	97281.304428520295	71
0	3066	97446.192186878041	72
0	3080	98324.399411705083	71
0	3085	98438.063949561248	72
0	3095	98669.841467769003	71
0	3104	98876.19637448124	72
0	3106	98960.603043873555	71
0	3111	99129.590804843975	72
0	3113	99455.696427600874	73
0	3115	99580.233944312787	72
0	3136	100018.017876942399	73
0	3142	100381.217972685628	74
0	3148	100411.790611323661	73
0	3157	100798.174450536019	72
0	3162	100840.083248646116	71
0	3171	101243.531429943389	70
0	3176	101286.503406142492	71
0	3186	102045.900276238875	72
0	3188	102058.94783683192	73
0	3198	102440.79887128318	72
0	3203	102502.322892689264	71
0	3212	102600.895651704151	72
0	3214	102732.734870581016	73
0	3216	102838.252928380628	74
0	3218	102936.675337264647	75
0	3228	102966.586393107421	74
0	3237	103112.969265573776	73
0	3242	103377.040237885661	72
0	3247	103379.91495405895	73
0	3253	103476.875237369097	72
0	3258	103582.533018979507	73
0	3268	104159.603106894649	72
0	3285	104532.487385766897	73
0	3295	104752.695666243083	72
0	3312	105319.785952226378	71
0	3317	105379.192451634613	72
0	3327	105635.911191020853	71
0	3332	105766.114993584432	72
0	3338	105923.980544575609	71
0	3343	105980.979878609131	72
0	3349	106325.35060505674	71
0	3354	106366.614934497724	72
0	3364	106574.56057666483	73
0	3370	106913.930386263961	74
0	3380	107151.407330733485	73
0	3389	107337.904498270693	74
0	3391	107361.93926724115	75
0	3393	107369.42977450148	74
0	3398	107448.505730730242	75
0	3404	107808.849130978704	76
0	3414	107983.208623890526	75
0	3427	108470.889159442839	76
0	3429	108722.935507324285	75
0	3438	109019.957906814273	76
0	3440	109025.808685564555	75
0	3445	109107.230009984917	74
0	3450	109125.624085582348	75
0	3460	109159.424280487739	76
0	3462	109345.793669654029	77
0	3464	109363.398653928882	76
0	3473	109606.346079402722	75
0	3490	110250.211104479379	74
0	3507	110654.388752912089	75
0	3517	110855.687005290452	76
0	3519	110917.100100283272	75
0	3524	110964.870913314737	76
0	3530	111023.804226145515	77
0	3532	111074.553263516284	76
0	3537	111136.900849487631	77
0	3543	111540.59805305027	78
0	3549	111778.749191907295	79
0	3551	111839.781557580063	80
0	3553	111917.55253434286	81
0	3555	111921.647425175763	80
0	3560	111962.771887560247	81
0	3562	112100.047397689922	82
0	3572	112226.165211227484	81
0	3577	112232.572437174311	82
0	3583	112543.287061771788	83
0	3589	112859.950977121249	84
0	3591	112951.6975054805	85
0	3597	113133.531276365735	86
0	3603	113250.540034052677	85
0	3608	113343.089158863879	84
0	3621	113856.865537292294	85
0	3623	113871.855063916303	84
0	3632	114017.548836443873	85
0	3634	114198.239107009716	84
0	3639	114403.205894933201	83
0	3644	114442.223842138175	84
0	3646	114610.375822362251	83
0	3655	114728.947837731861	84
0	3661	114949.55505491091	85
0	3679	115592.081153870679	84
0	3684	115699.949370830453	85
0	3686	115719.41833437394	86
0	3696	115806.497792833958	87
0	3702	115959.204453391319	88
0	3704	116079.582810279674	87
0	3709	116125.767830751422	88
0	3711	116228.138992648094	89
0	3721	116451.901257064886	88
0	3742	117097.862836451389	87
0	3751	117390.332384902729	88
0	3753	117508.707278285868	87
0	3758	117512.751063576756	88
0	3768	118408.486247801341	87
0	3781	118773.83831619168	86
0	3794	119179.411703300423	85
0	3815	120020.739199251987	84
0	3820	120034.846298091833	85
0	3822	120293.03309998358	84
0	3831	120984.76436919824	83
0	3840	121089.64953972841	82
0	3849	121358.584244985826	81
0	3854	121508.592115224458	80
0	3875	122411.599727055638	81
0	3877	122417.553931464202	80
0	3890	122489.477481121871	81
0	3892	122495.910136157315	82
0	3894	122578.26947724777	83
0	3896	122644.631592215158	82
0	3901	122656.579291618889	83
0	3907	122703.302527964807	84
0	3921	123429.478074823267	83
0	3926	123546.289273058842	84
0	3940	123902.980417193033	83
0	3945	124026.217370465134	84
0	3947	124092.054922665499	85
0	3953	124287.963496237767	86
0	3959	124863.135806423373	85
0	3964	124932.648481702713	86
0	3966	124960.905141883176	87
0	3968	125012.718090222337	86
0	3977	125407.041781426527	85
0	3982	125450.041529563017	84
0	4007	126244.497112376488	85
0	4009	126303.820157427589	86
0	4011	126330.10612680921	87
0	4013	126395.559473627881	88
0	4019	126494.467121724732	87
0	4028	126637.458496933336	88
0	4034	126771.434517570891	87
0	4051	127203.750562926047	88
0	4053	127270.550845309058	89
0	4055	127366.313552674819	90
0	4057	127382.802441560783	89
0	4066	127578.425862605173	90
0	4068	127582.521087070042	91
0	4074	127608.996933315642	90
0	4079	127627.315140881695	89
0	4084	127750.791622380506	90
0	4086	127764.260114408561	91
0	4100	128374.586498581924	90
0	4117	129137.86343067868	91
0	4119	129187.974827539869	90
0	4132	129468.910707361074	91
0	4134	129568.241344053367	92
0	4144	129972.954569601574	91
0	4149	130133.556896288641	90
0	4154	130401.617924514616	91
0	4156	130496.146550157257	92
0	4178	131387.39490586216	91
0	4183	131440.837696036948	92
0	4189	131648.936152787068	91
0	4194	131753.623107834172	92
0	4196	131779.594624367387	93
0	4198	132461.623152450779	92
0	4211	132831.775803652369	93
0	4213	132917.589307901211	92
0	4226	133192.530483373561	91
0	4235	133491.235471781393	92
0	4237	133551.548441749759	91
0	4242	133788.682208996103	92
0	4244	133915.515893771573	93
0	4250	134057.007134623987	94
0	4256	134217.149856940963	93
0	4261	134224.695286273486	94
0	4267	134437.042523374447	95
0	4277	134665.084842380678	96
0	4283	135031.444131833263	95
0	4300	135325.754196664993	96
0	4302	135521.678893447974	95
0	4307	135987.925820600935	94
0	4312	136304.297119753307	95
0	4314	136342.842179451831	94
0	4331	136741.773957901755	93
0	4340	136927.144461673446	92
0	4353	137438.027932037361	91
0	4366	137855.059434789551	92
0	4376	138192.101524349995	91
0	4389	138397.563099482218	90
0	4410	139395.024038617261	89
0	4419	139858.625995962754	90
0	4421	139861.019050062755	89
0	4426	139926.947839771159	88
0	4435	140118.421541528427	89
0	4441	140197.888508209148	88
0	4446	140347.702446697376	89
0	4460	140932.153696966119	88
0	4465	141033.899819770017	87
0	4474	141305.77014750684	86
0	4483	141323.748074032128	87
0	4485	141488.146360370853	88
0	4499	141983.27289491252	87
0	4504	142055.756723653495	88
0	4514	142449.848492145913	89
0	4520	142547.324795791069	88
0	4525	142765.278986123152	87
0	4534	142912.560341947833	86
0	4551	143937.623761732824	85
0	4560	144233.167006615008	86
0	4562	144306.844500307955	87
0	4564	144390.700134277691	88
0	4574	144521.883653944523	89
0	4580	144585.712886297265	88
0	4589	144631.92777790467	89
0	4591	144903.999827866204	88
0	4600	144943.268303567935	89
0	4610	145310.588426887788	90
0	4612	145554.071554162661	89
0	4617	145577.18755199457	88
0	4622	145718.090992422439	89
0	4624	145770.232955150063	90
0	4626	145865.749167458276	89
0	4631	145925.60539839141	90
0	4637	146065.297140882113	91
0	4643	146164.957672248359	92
0	4657	146871.516737559001	91
0	4666	146952.664152741586	92
0	4668	147064.7440762946	93
0	4674	147221.382731784829	92
0	4683	147346.254446507108	93
0	4685	147564.419757229039	92
0	4694	147825.891934701364	91
0	4711	147998.938230414638	90
0	4724	148506.247617680181	91
0	4726	148571.874489293556	90
0	4731	148651.46439314631	91
0	4733	148678.964411947951	92
0	4743	148947.070860665986	91
0	4764	149691.663440869312	90
0	4769	149736.233223537491	91
0	4775	149858.944049690613	90
0	4800	150927.017392919521	89
0	4805	151075.919842170976	90
0	4807	151211.309946355173	89
0	4816	151331.799759870888	90
0	4818	151441.69434756386	91
0	4820	151625.288400031906	92
0	4822	151714.706220020303	91
0	4831	151795.005438097875	90
0	4836	151819.331435112684	91
0	4850	152146.612827100913	90
0	4855	152226.831062864885	91
0	4861	152592.712010545782	92
0	4863	152685.644153908948	91
0	4872	152861.912626122592	92
0	4874	152876.523689403647	93
0	4880	152928.079990883121	92
0	4893	153189.397679184327	91
0	4898	153201.130564504425	90
0	4911	153757.706538205214	91
0	4913	153812.376359135966	90
0	4938	154692.95032235677	89
0	4951	155068.389501751523	88
0	4956	155343.211370826679	89
0	4966	155438.067231922124	90
0	4968	155737.894382446445	91
0	4974	156127.489998222451	90
0	4979	156193.013985258291	89
0	4984	156259.424624489882	90
0	4990	156437.106271257685	91
0	4996	156661.358269463177	92
0	5010	157492.161081613164	91
0	5023	157683.07836792315	90
0	5028	157731.248871225368	91
0	5034	157919.424921731671	92
0	5036	157988.312699676614	91
0	5041	158012.071783830175	90
0	5050	158878.244584121864	89
0	5067	159161.700878928894	90
0	5069	159282.587825327381	91
0	5075	159375.878954682664	92
0	5077	159514.746205386469	91
0	5082	159520.951692759794	92
0	5096	160119.015802101355	91
0	5105	160257.237609102085	92
0	5107	160554.435576674292	91
0	5120	160694.331665868655	92
0	5122	160710.129385807674	91
0	5131	160934.782555651615	90
0	5136	160937.653756219465	91
0	5138	161269.650312055598	90
0	5147	161519.972266585689	89
0	5152	161525.46877014334	88
0	5165	161676.316717006155	89
0	5179	161923.486450233776	90
0	5181	162090.368173904785	91
0	5187	162565.183500376294	90
0	5204	162953.033462830942	89
0	5221	163580.164414712351	88
0	5226	163638.969130391218	89
0	5232	163858.375334362812	90
0	5238	164093.71872278745	89
0	5247	164306.403579444748	88
0	5252	164355.062838223527	87
0	5257	164469.082004673404	88
0	5267	164831.639622898096	89
0	5273	164996.378055899701	90
0	5275	164998.642900928525	91
0	5277	165065.626097276659	92
0	5283	165199.611166969997	91
0	5296	165440.162230471294	92
0	5302	165655.793680351923	91
0	5307	165663.13393623128	92
0	5309	166049.252967593839	93
0	5315	166094.021888627685	94
0	5317	166122.229811515877	95
0	5319	166148.788377930477	96
0	5325	166166.631371097569	97
0	5331	166765.539802529973	96
0	5340	166774.649119501083	97
0	5342	166838.4344185801	98
0	5344	166946.672874380599	97
0	5349	167072.919995964629	96
0	5358	167361.12404727095	97
0	5364	167548.270966027628	96
0	5381	167810.005843968255	95
0	5386	168183.559394025368	94
0	5399	168666.968541459646	95
0	5401	168718.596277971517	94
0	5418	168971.71615821617	95
0	5436	169754.868174126402	96
0	5438	169762.827369075965	95
0	5443	169785.950476919149	96
0	5445	169800.37599369244	95
0	5454	170409.87817677961	94
0	5463	170583.429089103591	93
0	5476	170957.19834326234	94
0	5478	171038.083502123669	95
0	5480	171125.190457540124	96
0	5482	171167.188594815087	95
0	5503	171689.379108579022	94
0	5516	171980.784112117546	95
0	5522	172395.450513776679	96
0	5524	172426.604996313107	95
0	5537	172678.923076300288	96
0	5539	172976.475860172075	95
0	5552	173081.152538859422	96
0	5554	173170.523187042582	97
0	5556	173330.079673786431	98
0	5558	173377.743940337064	99
0	5564	173459.638825489908	100
0	5574	174083.086303722811	99
0	5579	174419.234188155395	98
0	5588	174826.597339613756	99
0	5594	175170.548995561329	100
0	5596	175526.640447144163	99
0	5601	175539.574455724222	98
0	5606	175838.292674397258	99
0	5616	176210.819416374184	100
0	5618	176275.805671995052	101
0	5620	176432.171064869625	100
0	5625	176662.897869185492	101
0	5627	176744.064067964209	100
0	5640	176978.764551229291	101
0	5642	176980.79806889106	102
0	5644	177094.916793758031	103
0	5650	177186.24477143283	102
0	5655	177442.079403096003	101
0	5676	178053.4338503267	100
0	5685	178284.955608946038	99
0	5694	178564.490367371583	100
0	5716	179119.70051258163	99
0	5725	179302.46363673251	100
0	5727	179442.895914640976	99
0	5748	180653.730476838045	100
0	5750	180655.982811332986	101
0	5752	180723.176509758067	102
0	5754	180758.64205460356	101
0	5759	180863.946342197014	100
0	5772	181204.414860991257	101
0	5774	181529.0489217679	102
0	5776	182108.917015113993	101
0	5781	182189.314569284467	102
0	5787	182241.04574414785	101
0	5796	182461.310644394163	102
0	5798	182595.866883237613	101
0	5803	182640.524969605174	102
0	5805	182642.743080767442	103
0	5807	182725.879463762242	104
0	5821	183210.062206418379	103
0	5826	183418.633697012379	104
0	5832	183735.528188635362	103
0	5853	184373.072277890121	104
0	5863	184510.172556371554	103
0	5876	185152.793223325861	102
0	5881	185350.020553625983	103
0	5883	185478.546097756489	102
0	5888	185942.413022362753	101
0	5893	186005.715894422472	102
0	5907	186251.176468872591	101
0	5912	186458.848060917807	100
0	5929	186959.414587474202	101
0	5935	187019.246371376232	102
0	5941	187280.885860797716	101
0	5954	187685.948329077228	100
0	5959	187825.116088465844	101
0	5973	188287.041999836219	100
0	5978	188363.935933527325	101
0	5984	188709.037699543997	100
0	5989	188752.228989031864	99
0	6002	189111.528035582169	98
0	6007	189172.278350255808	99
0	6017	189541.259622675134	98
0	6022	189782.828108769609	97
0	6027	189986.631460928484	96
0	6044	190507.750523195728	95
0	6049	190566.172813111392	96
0	6055	190670.361364436103	95
0	6060	190737.005075508365	96
0	6062	190774.128938904894	97
0	6072	190929.28618173407	96
0	6077	190952.314048170933	97
0	6099	191551.887081252599	98
0	6101	191706.424169832036	97
0	6114	191836.462436593932	98
0	6124	191954.783245538129	97
0	6129	192002.034757354424	96
0	6142	192439.724323254778	95
0	6159	192811.343375195822	96
0	6161	192916.733278066979	95
0	6178	193905.364330106543	94
0	6187	193998.27955449815	93
0	6192	194030.603695312625	94
0	6202	194372.710223303305	93
0	6207	194392.542734496402	94
0	6221	195074.697044816568	93
0	6226	195515.189020186168	94
0	6232	195548.869527609216	93
0	6241	195808.750270308602	94
0	6243	195898.560149957194	93
0	6252	196089.950709639913	94
0	6254	196099.55746379396	95
0	6260	196346.483338587648	96
0	6270	196475.094157264696	95
0	6279	196666.799333643868	94
0	6284	196688.145420033977	95
0	6294	197218.565477383092	94
0	6299	197277.690379464866	95
0	6305	197405.864210867451	94
0	6318	197811.348327689932	93
0	6331	197957.713685275451	94
0	6333	197984.07216349292	95
0	6335	198065.183853305398	96
0	6337	198211.627808947817	95
0	6350	198463.276257835253	96
0	6356	198656.753495436863	95
0	6369	198966.378352449404	94
0	6374	198984.540616167388	95
0	6384	199177.452823169426	96
0	6394	199665.392967269884	95
0	6403	199897.935891364471	94
0	6420	200516.358167746232	93
0	6425	200607.666654544836	94
0	6427	200805.663704657409	95
0	6433	200956.714817637098	96
0	6435	200994.036043648378	95
0	6440	201169.236001182286	96
0	6446	201320.345935107337	95
0	6451	201382.920087363797	96
0	6457	201672.428735264705	95
0	6470	202228.43260862744	96
0	6472	202254.600343432979	95
0	6481	202396.109086105988	96
0	6487	202658.335575566755	95
0	6508	203183.646247702274	96
0	6518	203672.075463485674	95
0	6523	203798.403660089837	94
0	6536	204178.720904098021	93
0	6545	204523.429487937384	94
0	6547	204758.440494228856	93
0	6556	204820.834439618357	94
0	6558	205090.047623224744	95
0	6560	205093.410087237036	96
0	6566	205438.533837171372	97
0	6584	205631.018016672175	98
0	6586	205821.807728738653	97
0	6591	205952.15038845123	98
0	6593	206072.255034774014	99
0	6599	206293.131471824603	98
0	6604	206327.064611690362	99
0	6610	206641.02608503857	100
0	6612	206790.473795862066	99
0	6617	206827.757148016084	100
0	6619	206885.925038408127	101
0	6625	207178.612550694859	102
0	6627	207254.308435033802	103
0	6637	207444.934585471074	104
0	6639	207687.437703492928	105
0	6641	207859.354698088722	104
0	6654	207899.580657292145	105
0	6660	208029.064203688889	106
0	6662	208408.15565302329	105