version 2
run Iteration-74-20200521-09:55:45-72408
attr configname Iteration
attr datetime 20200521-09:55:45
attr experiment Iteration
attr inifile omnetpp.ini
attr iterationvars "$i=8, $j=5, $0=15-(8+5)"
attr iterationvarsf i=8,j=5,15-(8+5)-
attr measurement "$i=8, $j=5, $0=15-(8+5)"
attr network Network
attr processid 72408
attr repetition 0
attr replication #0
attr resultdir results
attr runnumber 74
attr seedset 74
itervar i 8
itervar j 5
param **.resourcePool.amount 8
param **.resourcePool1.amount 5
param **.resourcePool2.amount 15-(8+5)
param **.source.interArrivalTime exponential(6min)
param **.delay.delay uniform(4min,28min)
param **.delay1.delay uniform(10min,28min)
param **.delay2.delay uniform(4min,16min)
param **.allocate.resourceModuleName "\"Network.resourcePool\""
param **.allocate1.resourceModuleName "\"Network.resourcePool1\""
param **.allocate2.resourceModuleName "\"Network.resourcePool2\""
param **.deallocate.resourceModuleName "\"Network.resourcePool\""
param **.deallocate1.resourceModuleName "\"Network.resourcePool1\""
param **.deallocate2.resourceModuleName "\"Network.resourcePool2\""
param **.router.randomGateIndex "uniform(0, 1) > 0.2 ? 0 : 1"

vector 0 Network.allocate queueLength:vector ETV
attr interpolationmode sample-hold
attr title "queue length, vector"
vector 1 Network.allocate1 queueLength:vector ETV
attr interpolationmode sample-hold
attr title "queue length, vector"
vector 2 Network.allocate2 queueLength:vector ETV
attr interpolationmode sample-hold
attr title "queue length, vector"
vector 3 Network.sink lifeTime:vector ETV
attr interpolationmode none
attr title "lifetime of arrived jobs, vector"
attr unit s
vector 4 Network.sinkStat lifeTime:vector ETV
attr interpolationmode none
attr title "lifetime of arrived jobs, vector"
attr unit s
0	0	0	0
0	10413	254748.467246041144	1
0	10415	254809.604856141798	0
1	0	0	0
1	238	8430.564121133243	1
1	240	8530.03119639059	0
1	255	8764.688763754155	1
1	261	8871.613988109647	0
1	340	10537.514465356432	1
1	342	10556.292330629643	0
1	1030	30887.198225402911	1
1	1032	30897.04150884332	0
1	1240	35408.471152556405	1
1	1242	35510.554958000601	0
1	1252	35531.228322115351	1
1	1254	35620.530118385606	0
1	1467	40773.482308823046	1
1	1470	40809.758083493187	2
1	1472	41059.1892594989	1
1	1476	41110.773706526869	0
1	1916	56241.877833699736	1
1	1918	56644.407239158859	0
1	2098	61472.211835848028	1
1	2105	61594.154031779525	2
1	2108	61668.680872686713	3
1	2110	61735.880818113175	2
1	2115	61818.113331714964	1
1	2123	62079.925576360782	0
1	2190	63077.936449047923	1
1	2193	63126.555106024614	2
1	2196	63200.853701607898	3
1	2199	63282.890923807974	4
1	2204	63470.400313152319	3
1	2211	63521.946204806346	2
1	2215	63533.318965261837	1
1	2224	63752.226816067358	0
1	2229	63804.382733095551	1
1	2240	64110.169045792741	2
1	2242	64137.640411467277	1
1	2255	64349.579606405998	2
1	2260	64519.874795064649	1
1	2270	64839.874307045597	2
1	2272	64845.19500091288	1
1	2281	64997.472685309162	0
1	2460	69166.51824080636	1
1	2462	69287.427642114275	0
1	2467	69343.629889007055	1
1	2469	69347.484983375026	0
1	2482	69495.693414687071	1
1	2484	69517.523785602163	0
1	2569	71295.716730401888	1
1	2571	71318.856481594543	0
1	2581	71521.042178066526	1
1	2583	71711.219953461909	0
1	2708	74446.867727300525	1
1	2710	74494.183829057103	0
1	2791	75855.300110006678	1
1	2794	75945.826957684212	2
1	2796	75959.479779260604	1
1	2811	76177.518014292121	2
1	2814	76232.764876159959	3
1	2816	76305.52841850216	2
1	2820	76438.235515949641	1
1	2825	76489.054867799099	2
1	2828	76548.646152964391	3
1	2830	76561.707740347465	2
1	2847	76878.98632831448	1
1	2851	76979.481839292072	0
1	2856	77130.633811972497	1
1	2871	77465.216735738654	0
1	2904	77985.582533798634	1
1	2906	78021.898141825892	0
1	2944	78611.661782714986	1
1	2950	78659.580953535708	2
1	2962	78874.566879716091	1
1	2966	78935.895215778416	0
1	3156	83223.028470819362	1
1	3162	83322.097056608047	2
1	3164	83333.176316571486	1
1	3173	83448.783491647664	0
1	3292	86276.838893439646	1
1	3299	86646.86584542802	0
1	3311	86786.800739344539	1
1	3322	86918.424668598428	2
1	3324	86919.024204538679	1
1	3339	87129.036764254038	0
1	3344	87254.033865039392	1
1	3351	87368.91742742917	0
1	3356	87401.052445092576	1
1	3364	87571.83697831892	2
1	3366	87610.669667496939	1
1	3375	87696.062989543667	0
1	3829	98746.927231942334	1
1	3836	98787.76908344032	0
1	3841	98870.037643346721	1
1	3858	99210.709130409847	2
1	3871	99317.029120253392	3
1	3880	99527.359932404943	2
1	3885	99580.290609097772	1
1	3891	99722.5335030928	2
1	3894	99723.655692905137	3
1	3896	99750.117742966591	2
1	3901	99799.188228766501	3
1	3903	99830.601281173544	2
1	3912	100148.709299501014	1
1	3917	100302.597845848503	2
1	3924	100668.570904716866	1
1	3929	100701.567815636373	2
1	3936	100845.492711425759	1
1	3943	100900.456212337791	0
1	4173	106824.811409060261	1
1	4175	106907.915376708543	0
1	4295	109828.169669008379	1
1	4298	109955.343293717698	2
1	4300	110062.493773468168	1
1	4305	110075.167180644898	0
1	5063	129955.603633436093	1
1	5065	130115.171631182765	0
1	5148	131347.153740527052	1
1	5150	131737.903563673006	0
1	5155	131741.073378749832	1
1	5161	131825.49091114286	2
1	5168	131874.040240521174	1
1	5176	132089.374648124414	2
1	5178	132114.63609198902	1
1	5190	132313.75332889765	0
1	5198	132436.317162574267	1
1	5206	132682.652717354126	2
1	5209	132692.539157575901	3
1	5217	132775.377611606114	4
1	5219	132802.046744063949	3
1	5227	132915.186194350031	4
1	5233	133138.312953333679	5
1	5236	133158.447785861734	6
1	5238	133170.865560178043	5
1	5247	133466.568296697553	4
1	5259	133708.905113317664	3
1	5263	133734.33180582572	2
1	5275	133873.552269725581	1
1	5284	134160.7347701903	0
1	5308	134600.816092602736	1
1	5321	134931.681979153635	0
1	5391	136471.919049096501	1
1	5393	136522.124623436811	0
1	5643	143974.561478912551	1
1	5649	144196.872884902481	0
1	6195	160251.267324303083	1
1	6205	160380.44190295236	2
1	6208	160421.760995076863	3
1	6218	160540.944340876258	4
1	6223	160715.645111756542	3
1	6228	160730.075021161211	2
1	6234	160806.817934716142	3
1	6237	160947.707844240431	4
1	6239	161062.273071094287	3
1	6244	161142.987369443259	4
1	6246	161329.173039404171	3
1	6255	161377.096458294996	2
1	6259	161391.579056650845	1
1	6269	161764.232420979104	2
1	6271	161820.053655741879	1
1	6283	162246.777108035618	0
1	6360	163425.535691553477	1
1	6362	163530.940373058999	0
1	6373	163631.591912194616	1
1	6376	163791.633890793878	2
1	6379	163814.536727149818	3
1	6382	163858.492752147414	4
1	6384	164015.956418694556	3
1	6388	164017.141938784871	2
1	6403	164398.064325631196	3
1	6405	164518.838665308743	2
1	6409	164529.648892131804	1
1	6419	164563.56281233158	2
1	6442	165130.227622858817	1
1	6446	165253.222129978552	0
1	6451	165276.195020188277	1
1	6453	165285.406197064726	0
1	6579	167572.151655961296	1
1	6589	167876.878252853213	0
1	6904	174527.486843453392	1
1	6911	174944.00875241318	0
1	7043	177918.902530755973	1
1	7046	178031.599507713736	2
1	7054	178299.65988266502	1
1	7059	178303.220753397773	0
1	7065	178383.744094641611	1
1	7072	178623.790975609449	2
1	7078	178721.171529918493	1
1	7083	178739.0631022279	0
1	7089	178774.528216331565	1
1	7101	179134.924546026033	0
1	7129	179795.332696765789	1
1	7131	179861.359060982223	0
1	7137	179862.0973858835	1
1	7140	179916.08531738147	2
1	7142	179996.062420487744	1
1	7151	180151.226538743157	0
1	7244	182166.408017382965	1
1	7254	182234.835933941749	0
1	7305	183176.694328138142	1
1	7308	183202.125251567175	2
1	7310	183535.973539850125	1
1	7314	183615.615639774188	0
1	7329	183769.470959523183	1
1	7344	183905.547689712939	0
1	7349	184089.693844319319	1
1	7351	184239.7706888002	0
1	7361	184475.899148706146	1
1	7363	184528.855784213552	0
1	7472	186871.698128850858	1
1	7494	187136.682225748333	2
1	7497	187155.726836513675	3
1	7499	187336.09559830925	2
1	7507	187353.874297207522	3
1	7514	187486.077766034317	2
1	7518	187751.679666401049	1
1	7528	187843.228740632227	0
1	7538	187913.526794675088	1
1	7540	187920.159802027268	0
1	7553	188344.521141470627	1
1	7561	188405.905067102075	2
1	7566	188452.860155037553	1
1	7571	188477.883533986974	2
1	7579	188626.013332613336	3
1	7581	188743.802462683556	2
1	7585	188841.597580374381	1
1	7589	188906.981390016375	0
1	7599	189113.197859029608	1
1	7601	189122.513670870727	0
1	7611	189417.587811651497	1
1	7624	189790.941116192327	0
1	7658	190324.083894686532	1
1	7660	190485.62631048744	0
1	7946	198619.055734016767	1
1	7948	198667.129016680937	0
1	7954	198799.912068341512	1
1	7956	198882.026872949989	0
1	7962	198882.879444521342	1
1	7965	198931.460403976984	2
1	7968	198945.225994964613	3
1	7980	199226.484410326585	2
1	7986	199327.35969017075	3
1	7995	199483.529628333799	2
1	8006	199778.887861566289	1
1	8010	199795.359439410584	0
1	8015	199801.124880674078	1
1	8034	200211.978673650187	2
1	8036	200250.330318225842	1
1	8041	200331.978301570087	2
1	8044	200344.243970494567	3
1	8046	200406.98091830094	2
1	8058	200695.247402177356	1
1	8066	200824.424637631935	2
1	8073	200895.61777795817	1
1	8078	201039.61946143972	2
1	8081	201110.531414646652	3
1	8086	201131.539035149233	2
1	8095	201213.801143462133	1
1	8100	201214.269624995988	2
1	8106	201444.367493644348	3
1	8108	201510.376182980506	2
1	8113	201547.152016071579	3
1	8116	201611.088961348539	4
1	8123	201812.39288069153	3
1	8127	201848.486217599657	2
1	8131	202015.941536748014	1
1	8145	202359.193127827377	0
1	8342	207866.759322703642	1
1	8350	208394.083501280053	0
1	8383	208837.31440865698	1
1	8390	209179.88306665019	0
1	8582	213727.872543039496	1
1	8584	213745.099914251549	0
1	8749	217477.708331860008	1
1	8751	217502.978857477565	0
1	8757	217590.971937618895	1
1	8759	217683.096197588302	0
1	8764	217692.299887427602	1
1	8778	217830.319857503804	2
1	8780	217857.526760260019	1
1	8787	217912.649407794466	0
1	8805	218205.679845595122	1
1	8807	218483.836810292114	0
1	8832	218902.909035397212	1
1	8847	219182.316438146311	0
1	8882	219512.395726356735	1
1	8889	219887.86044824906	0
1	8894	219991.585207947961	1
1	8905	220133.093329389949	0
1	8910	220155.154265260397	1
1	8925	220338.331205977793	0
1	9274	229869.075022564685	1
1	9279	229967.11537879835	0
1	9311	230700.026600845637	1
1	9313	230781.461740815445	0
1	9544	235915.44326009306	1
1	9552	236137.585151555259	2
1	9554	236165.794678911938	1
1	9558	236490.554766136414	0
1	9862	244161.948151725619	1
1	9864	244209.749832461908	0
1	9869	244257.782344237104	1
1	9872	244339.854657953912	2
1	9884	244457.473866970595	1
1	9891	244756.930899796565	0
1	9896	244769.388918685625	1
1	9901	244850.50826273485	0
1	10072	248149.591179519209	1
1	10075	248220.096454680424	2
1	10077	248327.064821202637	1
1	10092	248592.8210661601	2
1	10108	248865.459547328703	1
1	10114	249039.880607926395	2
1	10116	249048.121384743667	1
1	10121	249060.174886273908	0
1	10126	249072.342104740937	1
1	10128	249073.650742658611	0
1	10327	253508.638324392134	1
1	10329	253614.24240862938	0
1	10335	253615.295985594156	1
1	10341	253689.621487003228	2
1	10347	253752.020413453384	3
1	10349	253804.187040913507	2
1	10368	254253.113769800794	3
1	10371	254291.326147777095	4
1	10373	254301.364835640289	3
1	10382	254412.413745515854	2
1	10396	254529.446215499178	3
1	10398	254583.120903935478	2
1	10402	254614.000346649095	1
1	10406	254678.067463787025	0
1	10417	254809.604856141798	1
1	10420	254812.180900659291	2
1	10431	255195.746045784245	3
1	10433	255268.896229522497	2
1	10443	255343.720139436724	3
1	10446	255371.01830366534	4
1	10452	255594.260026860361	5
1	10455	255638.152307466786	6
1	10462	255717.346264713318	5
1	10467	255861.000784959055	6
1	10469	255870.412679454185	5
1	10487	256072.707175187961	4
1	10491	256113.046803001067	3
1	10496	256140.918391838909	4
1	10507	256243.901372247331	5
1	10509	256249.938482192933	4
1	10514	256456.651417890436	5
1	10525	256659.012250488827	6
1	10528	256660.849325369631	7
1	10533	256860.044497372456	6
1	10548	257155.088034675504	7
1	10553	257324.118033361496	6
1	10562	257434.875145515084	5
1	10571	257540.247857106602	4
1	10576	257562.141433372524	5
1	10578	257563.757207052977	4
1	10583	257729.279724768596	5
1	10586	257731.113222500353	6
1	10589	257794.143429440684	7
1	10599	258179.667910493567	6
1	10608	258308.812317419671	5
1	10616	258473.463060964896	6
1	10629	258765.225083125332	7
1	10631	258882.366346150389	6
1	10638	258930.251893077852	5
1	10642	259029.42418857257	4
1	10651	259084.394286241577	3
1	10668	259520.235500475266	2
1	10680	259880.467367772208	1
1	10684	259965.630940229507	0
1	10697	260307.624703536632	1
1	10704	260405.541395337909	0
1	10722	260601.269035616989	1
1	10729	260688.494775418999	0
1	10746	260963.817225527525	1
1	10748	260971.462427331009	0
1	10753	261333.45328748038	1
1	10763	261593.320299831807	0
1	10934	265722.531752045471	1
1	10948	266005.699391954895	2
1	10950	266024.124673406193	1
1	10954	266098.342677462123	0
1	10967	266155.087198758418	1
1	10969	266228.704353006635	0
1	11112	269195.88999507545	1
1	11124	269465.782085396307	0
1	11132	269726.378625274414	1
1	11140	269946.010584072752	2
1	11147	269977.145426273895	1
1	11151	270101.734455359718	0
1	11156	270217.820420459786	1
1	11173	270272.264081378767	2
1	11175	270364.885275065841	1
1	11193	270697.656371342087	2
1	11195	270703.804679731593	1
1	11199	270773.22201002385	0
1	11214	270955.435240583017	1
1	11216	271063.670057849901	0
1	11221	271283.656608419723	1
1	11228	271405.895297396886	0
2	0	0	0
2	59	3127.479387871756	1
2	62	3268.496279165021	2
2	64	3378.333713721953	1
2	69	3399.030973758265	0
2	85	3722.005029660878	1
2	87	3808.398537256293	0
2	267	9014.534980023346	1
2	273	9099.918127826728	0
2	279	9236.857028709269	1
2	282	9278.754751001796	2
2	291	9438.974391864075	3
2	293	9488.888734147667	2
2	299	9685.795619577884	3
2	312	9996.760982830792	2
2	320	10044.824620544292	1
2	344	10556.292330629643	2
2	346	10813.589306476839	1
2	352	10815.396677287393	2
2	354	10919.845002383708	1
2	360	11203.703227939552	2
2	362	11206.588699224718	1
2	385	11443.041572762728	2
2	388	11474.995473245054	3
2	390	11500.770595517724	2
2	396	11571.771670288857	3
2	402	11887.272044870384	2
2	415	12129.194550535955	1
2	420	12185.112570483952	0
2	426	12215.742545533297	1
2	432	12240.327671310836	2
2	452	12523.647120451635	3
2	454	12792.580413393058	2
2	460	12826.153333988782	3
2	462	12881.631788291752	2
2	470	13071.252497437723	1
2	479	13179.2784757137	0
2	489	13486.525274115105	1
2	492	13626.132975759485	2
2	494	13661.070187088817	1
2	500	13735.33026382967	2
2	514	13973.996678643644	1
2	519	14000.673977586754	0
2	537	14315.505951471999	1
2	539	14332.759274092287	0
2	549	14576.575535345578	1
2	552	14606.967525670564	2
2	557	14709.525344443292	1
2	562	14779.984410818048	0
2	568	14812.673731543888	1
2	579	15060.940297772584	2
2	581	15246.405079287261	1
2	593	15499.195719383039	0
2	599	15611.8453855933	1
2	609	15771.08373646382	2
2	611	16056.782839313865	1
2	617	16077.9819180887	2
2	623	16319.973075461358	1
2	628	16450.648007079341	0
2	637	16543.015959790266	1
2	640	16630.317462914127	2
2	642	16825.368086549767	1
2	655	17222.187688161403	0
2	667	17698.652292136698	1
2	669	17721.788892581441	0
2	686	18261.676509560267	1
2	695	18472.196223347761	0
2	736	20065.175908085459	1
2	741	20284.667699177254	0
2	840	24366.354764909139	1
2	842	24578.512192001547	0
2	897	26944.20796767407	1
2	912	27543.590008949123	0
2	1068	31589.357957596395	1
2	1077	31910.021491101978	0
2	1083	31927.702853762674	1
2	1096	32435.221073428146	0
2	1141	33480.584132367972	1
2	1156	33783.157866525466	2
2	1158	33821.681617781625	1
2	1169	33968.757512858669	0
2	1196	34392.747476928622	1
2	1199	34422.874698888537	2
2	1205	34562.1482601674	1
2	1210	34672.473551622053	0
2	1216	34825.862966700071	1
2	1226	35058.34791374446	0
2	1260	35708.633717150829	1
2	1263	35834.478244768842	2
2	1268	36179.942693358563	1
2	1276	36345.561208460302	0
2	1282	36400.749838158764	1
2	1285	36469.293786171646	2
2	1291	36645.858535359598	3
2	1293	36777.711423693501	2
2	1302	36990.288771796794	1
2	1318	37545.444142486221	2
2	1324	37732.782776115738	1
2	1329	37756.493374217124	0
2	1335	37916.479425629195	1
2	1341	38160.73162825992	0
2	1347	38312.454665916039	1
2	1349	38347.655294347377	0
2	1422	40124.064182771589	1
2	1431	40144.40000604993	2
2	1449	40556.655529925494	1
2	1454	40613.290797974485	0
2	1474	41059.1892594989	1
2	1478	41110.773706526869	2
2	1480	41123.456165810941	1
2	1486	41161.805786404428	2
2	1491	41439.699946771878	1
2	1503	41835.861401354788	0
2	1515	41905.805076821427	1
2	1518	41916.591658094486	2
2	1521	42043.589476058677	3
2	1531	42152.785505018699	2
2	1536	42161.893626825778	1
2	1546	42289.688980008849	2
2	1549	42556.903403156716	3
2	1558	42851.761018328287	4
2	1560	42942.790362238455	3
2	1573	43113.772587088762	2
2	1583	43385.016248839396	3
2	1586	43429.855553959398	4
2	1588	43483.09165030675	3
2	1596	43999.631072284548	2
2	1602	44128.687861901053	3
2	1609	44319.154411511881	4
2	1611	44320.198303106744	3
2	1623	44646.219351237534	2
2	1628	44648.754301350136	1
2	1637	44777.791116024218	2
2	1642	44958.603056056319	1
2	1650	45131.328477132638	0
2	1656	45138.543140565166	1
2	1666	45409.493682346811	0
2	1672	45494.210962448596	1
2	1677	45760.583779720484	0
2	1683	46063.500157519722	1
2	1689	46190.344270169308	0
2	1699	46410.042736526626	1
2	1704	46488.423546144633	0
2	1763	48623.259757781806	1
2	1765	48806.554080708058	0
2	1808	50649.256835086038	1
2	1816	51057.417489741758	0
2	1862	53351.239319998771	1
2	1864	53659.380531596464	0
2	1931	57029.840088739597	1
2	1933	57039.362035871705	0
2	2043	60116.346289442043	1
2	2051	60456.924584330978	0
2	2125	62079.925576360782	1
2	2130	62160.480694057739	0
2	2156	62473.356902399328	1
2	2166	62752.392112042245	2
2	2168	62785.204323115146	1
2	2177	62892.038309422263	0
2	2206	63470.400313152319	1
2	2213	63521.946204806346	2
2	2217	63533.318965261837	3
2	2219	63702.452588597631	2
2	2226	63752.226816067358	3
2	2231	63811.081229557225	2
2	2244	64137.640411467277	3
2	2246	64207.819280025491	2
2	2262	64519.874795064649	3
2	2264	64542.094961231893	2
2	2274	64845.19500091288	3
2	2276	64864.70686679179	2
2	2283	64997.472685309162	3
2	2285	65027.494339083263	2
2	2291	65062.084412076496	3
2	2293	65119.513039248382	2
2	2299	65123.021829536784	3
2	2305	65703.537767563888	2
2	2311	65729.534093099034	3
2	2313	65857.249298965876	2
2	2319	65916.603891359677	3
2	2326	66081.769210831989	4
2	2328	66174.44823272241	3
2	2334	66242.629691125711	4
2	2339	66321.64991510505	3
2	2345	66725.777221278281	4
2	2347	66806.910599483495	3
2	2359	67013.880425614246	2
2	2377	67516.482773213034	1
2	2385	67569.850553792843	0
2	2406	68059.99769907788	1
2	2412	68103.146138481596	2
2	2414	68224.352676118111	1
2	2425	68484.121302568295	0
2	2464	69287.427642114275	1
2	2471	69347.484983375026	2
2	2476	69433.551876728364	1
2	2486	69517.523785602163	2
2	2488	69576.212379506315	1
2	2494	69765.680694362414	2
2	2500	70122.009413928666	1
2	2515	70351.197549966187	2
2	2520	70459.154004978473	1
2	2530	70570.655051642891	2
2	2533	70614.092847194337	3
2	2535	70627.541139868029	2
2	2549	70880.002589804782	3
2	2551	70969.562643712844	2
2	2560	71209.65175960445	1
2	2573	71318.856481594543	2
2	2575	71476.818570715316	1
2	2585	71711.219953461909	2
2	2587	71848.159769067999	1
2	2593	71860.76821052424	2
2	2596	72089.470704283143	3
2	2601	72165.663763789918	2
2	2607	72289.127747841363	3
2	2612	72328.210342504956	2
2	2618	72548.532915658996	3
2	2624	72807.275863403912	2
2	2633	72923.518167226934	3
2	2641	73122.560157834079	2
2	2646	73221.311449349798	1
2	2656	73555.061699718563	2
2	2669	73832.375005932983	1
2	2681	74124.013441225972	0
2	2727	74872.220703338959	1
2	2730	74881.785444644246	2
2	2736	74974.707617818451	1
2	2748	75192.473360307305	0
2	2757	75254.002405091584	1
2	2760	75349.340540527439	2
2	2772	75516.175250395274	1
2	2798	75959.479779260604	2
2	2800	76008.716955043166	1
2	2805	76029.853555898255	0
2	2818	76305.52841850216	1
2	2822	76438.235515949641	2
2	2832	76561.707740347465	3
2	2834	76613.961406967676	2
2	2842	76651.848708957224	1
2	2849	76878.98632831448	2
2	2853	76979.481839292072	3
2	2858	77405.282446782178	2
2	2866	77449.062838412612	1
2	2873	77465.216735738654	2
2	2876	77500.008515794201	3
2	2882	77620.810970324656	4
2	2884	77823.251828595787	3
2	2908	78021.898141825892	4
2	2919	78209.333946279323	3
2	2925	78255.616192729634	4
2	2931	78475.918707533812	3
2	2937	78493.005099107836	4
2	2952	78674.155371121853	3
2	2957	78718.734811752176	2
2	2964	78874.566879716091	3
2	2968	78935.895215778416	4
2	2973	79015.922905973232	3
2	2979	79063.049656676006	4
2	2985	79343.036998271084	3
2	2991	79351.119905624025	4
2	2996	79530.038030508697	3
2	3002	79703.957990982019	4
2	3005	79947.558360906638	5
2	3012	80075.377867647066	6
2	3022	80183.948434799052	5
2	3027	80280.511810321152	4
2	3033	80299.793540167427	5
2	3035	80452.156459058709	4
2	3043	80866.665402993351	3
2	3051	81089.033135588355	2
2	3060	81133.996221753021	3
2	3066	81344.832306932911	4
2	3075	81653.607801183201	3
2	3080	81686.958601761401	2
2	3089	81815.224284926808	3
2	3095	81954.523985556401	2
2	3100	81961.515846092046	1
2	3120	82531.860502009318	2
2	3126	82597.903758456331	3
2	3136	82733.569919954128	2
2	3141	82879.797317765445	1
2	3150	83139.697910889775	0
2	3166	83333.176316571486	1
2	3168	83372.016992813982	0
2	3175	83448.783491647664	1
2	3178	83641.519293695577	2
2	3181	83738.487198005158	3
2	3187	83922.938925942433	4
2	3192	83981.714128240086	3
2	3200	84096.732991680295	2
2	3209	84515.681154078878	1
2	3220	84826.516422040553	0
2	3226	84888.08712771428	1
2	3233	84998.987468768907	2
2	3239	85287.851817480363	1
2	3249	85429.303814181537	2
2	3254	85538.594415847005	1
2	3273	85944.050934840127	2
2	3278	86079.096984642632	1
2	3294	86320.013515639843	0
2	3301	86646.86584542802	1
2	3304	86758.783089617833	2
2	3313	86822.646842545904	1
2	3326	86919.024204538679	2
2	3334	86995.558772243352	1
2	3341	87129.036764254038	2
2	3346	87308.821051272638	1
2	3353	87368.91742742917	2
2	3358	87407.318552739711	1
2	3368	87610.669667496939	2
2	3370	87678.986481789292	1
2	3377	87696.062989543667	2
2	3382	87737.559905669726	1
2	3394	88072.589712211107	2
2	3396	88393.693741208948	1
2	3402	88434.688045359638	2
2	3404	88525.088485281707	1
2	3410	88530.850368713201	2
2	3419	89047.185617014428	3
2	3422	89136.711162926173	4
2	3424	89247.783590632565	3
2	3429	89257.887385606558	2
2	3449	89719.022660542072	1
2	3458	90020.227346502037	0
2	3464	90166.461870361883	1
2	3470	90207.556403673328	0
2	3508	91070.069780551278	1
2	3510	91181.74063128438	0
2	3523	91252.826110601862	1
2	3532	91588.884842618528	0
2	3570	92219.246355657199	1
2	3578	92407.161821540048	0
2	3709	95683.895748711491	1
2	3711	95704.024987143707	0
2	3746	96675.374831992888	1
2	3757	96854.508225330674	0
2	3822	98682.730295166817	1
2	3831	98782.787110626903	0
2	3838	98787.76908344032	1
2	3846	98980.790757850889	0
2	3898	99750.117742966591	1
2	3905	99830.601281173544	2
2	3907	100052.221886762418	1
2	3914	100148.709299501014	2
2	3919	100511.767738091492	1
2	3926	100668.570904716866	2
2	3931	100788.567287498154	1
2	3938	100845.492711425759	2
2	3945	100900.456212337791	3
2	3951	101225.595664263435	4
2	3953	101245.868052935892	3
2	3958	101287.358353962191	2
2	3964	101511.086744297313	3
2	3967	101549.113350493816	4
2	3973	101687.562201335095	5
2	3980	101926.918282357707	6
2	3982	102103.899369803258	5
2	3987	102200.939236881876	4
2	4004	102974.012086333319	5
2	4010	103055.092656188645	4
2	4018	103147.521440352047	3
2	4023	103423.320859619417	2
2	4031	103718.090994975263	1
2	4037	103751.379961835525	2
2	4046	103929.057413623669	1
2	4052	104153.069517692664	2
2	4058	104413.356679123827	1
2	4063	104526.330037976349	0
2	4069	104542.839833245165	1
2	4087	105173.912148033269	0
2	4112	105688.778705273898	1
2	4122	105988.953000606097	2
2	4131	106131.841836222448	1
2	4139	106193.889692680443	0
2	4149	106452.2785795498	1
2	4151	106482.14172141021	0
2	4177	106907.915376708543	1
2	4182	107086.053685561143	0
2	4188	107191.403670988265	1
2	4190	107385.817288601304	0
2	4196	107467.388312638286	1
2	4198	107749.03874257239	0
2	4208	107946.359743918547	1
2	4210	108046.069690861129	0
2	4216	108059.070340606957	1
2	4224	108098.382801221217	0
2	4236	108544.814063488086	1
2	4239	108570.410858145615	2
2	4244	108704.587534625404	1
2	4252	108909.572319065685	0
2	4311	110397.143299827206	1
2	4317	110603.13529042019	2
2	4319	110623.077847408681	1
2	4328	110739.938579045565	0
2	4334	110963.274349572466	1
2	4344	111181.340126674794	2
2	4346	111228.537472459107	1
2	4352	111410.203896090938	2
2	4354	111488.994281154455	1
2	4367	111724.918372356352	2
2	4369	111890.17413253951	1
2	4383	112079.006798989112	2
2	4386	112257.09080865762	3
2	4388	112313.557580626189	2
2	4393	112440.942370325656	1
2	4407	112744.82022910598	0
2	4431	113156.548121194723	1
2	4433	113246.528403657108	0
2	4517	115134.233887786264	1
2	4520	115134.963751020987	2
2	4529	115188.308237930928	1
2	4546	115887.633065603644	2
2	4548	115945.847843680527	1
2	4553	115953.667156277393	0
2	4559	116035.182953455835	1
2	4566	116089.295718929628	2
2	4568	116213.650243254547	1
2	4574	116226.054276255599	2
2	4579	116519.882059320804	1
2	4584	116606.010048343037	0
2	4609	117141.192532692063	1
2	4611	117426.975445235316	0
2	4617	117704.912904657229	1
2	4619	117758.880493852856	0
2	4753	122320.580070881347	1
2	4756	122420.217009502081	2
2	4758	122513.876344733627	1
2	4763	122561.058437285283	0
2	4817	123907.993855881279	1
2	4826	124094.028057260179	0
2	4835	124130.954825166642	1
2	4838	124192.74798541504	2
2	4844	124371.210296588097	1
2	4854	124595.397244039084	2
2	4856	124720.383933046573	1
2	4868	125126.238835105751	0
2	4874	125193.916054580294	1
2	4880	125336.648306267493	2
2	4883	125369.265188635989	3
2	4885	125455.867945781056	2
2	4894	125474.50260356974	1
2	4903	125762.694378150368	0
2	5093	130782.342823873495	1
2	5096	130787.980934586286	2
2	5106	130996.98743077309	3
2	5108	131008.622573967095	2
2	5130	131275.706452291284	1
2	5139	131305.02023694944	0
2	5152	131737.903563673006	1
2	5163	131826.268534081992	0
2	5170	131874.040240521174	1
2	5180	132114.63609198902	2
2	5182	132133.487523730669	1
2	5192	132313.75332889765	2
2	5200	132546.297929639932	1
2	5211	132726.233420215372	0
2	5221	132802.046744063949	1
2	5240	133170.865560178043	2
2	5242	133264.398740019474	1
2	5249	133466.568296697553	2
2	5251	133483.752793258991	1
2	5261	133708.905113317664	2
2	5265	133734.33180582572	3
2	5270	133858.690594389859	2
2	5277	133873.552269725581	3
2	5279	133967.600117268976	2
2	5286	134160.7347701903	3
2	5288	134198.560634564433	2
2	5294	134359.150695834871	3
2	5301	134574.069447841982	4
2	5313	134691.885567157533	3
2	5323	134931.681979153635	4
2	5326	134991.003130315324	5
2	5328	135115.334217782888	4
2	5334	135181.204392677879	5
2	5340	135344.904867165382	6
2	5342	135361.621578402642	5
2	5350	135498.460720571693	4
2	5363	135920.044018822137	5
2	5365	136043.461041356441	4
2	5385	136292.185751005832	3
2	5395	136522.124623436811	4
2	5398	136719.444504774571	5
2	5400	136747.979316834185	4
2	5405	136756.075529101309	3
2	5411	136779.215961836672	4
2	5413	137031.301717303518	3
2	5419	137224.937173677354	4
2	5422	137350.656573130223	5
2	5425	137359.605639189812	6
2	5427	137453.252362701115	5
2	5439	137722.147576894436	4
2	5444	138239.025628845212	3
2	5449	138463.983982346777	2
2	5458	138926.902692176003	3
2	5467	139081.716199423191	2
2	5479	139411.561121411447	1
2	5485	139540.540773991957	2
2	5487	139549.597359615383	1
2	5502	140234.193196549837	0
2	5539	141275.812730451698	1
2	5542	141287.315935101449	2
2	5551	141495.757043719545	1
2	5560	141968.354845040997	0
2	5590	142702.747036792327	1
2	5593	142753.161347766118	2
2	5601	142859.775673498919	1
2	5610	143062.585781630985	0
2	5631	143697.986801525927	1
2	5633	143809.855353472343	0
2	5655	144210.582023416867	1
2	5661	144348.838008603685	2
2	5663	144517.955325144652	1
2	5671	144551.270915971658	0
2	5691	145118.546993521418	1
2	5693	145127.803632275722	0
2	5699	145189.594697001055	1
2	5701	145424.862489170704	0
2	5729	145788.954261496041	1
2	5738	146281.345656934503	0
2	5768	146852.106572050418	1
2	5774	147437.197665860598	2
2	5776	147456.891403269413	1
2	5784	147515.856551833845	0
2	5790	147569.367846902149	1
2	5792	147847.559235036763	0
2	5892	151218.906406067699	1
2	5900	151577.262281581614	0
2	6044	155509.847501942294	1
2	6047	155565.14528250079	2
2	6049	155706.869211412357	1
2	6054	155790.800691358647	0
2	6060	156042.778723706234	1
2	6062	156278.510333179818	0
2	6072	156409.157961616694	1
2	6074	156661.313691660664	0
2	6110	157960.950321165128	1
2	6119	158447.884484417494	0
2	6241	161062.273071094287	1
2	6248	161329.173039404171	2
2	6250	161357.687022367937	1
2	6257	161377.096458294996	2
2	6261	161391.579056650845	3
2	6263	161620.471360864261	2
2	6273	161820.053655741879	3
2	6275	161920.311981009764	2
2	6285	162246.777108035618	3
2	6293	162391.352907003978	2
2	6299	162562.865416419563	3
2	6310	162786.242090257329	2
2	6320	162856.53790233515	3
2	6323	162873.593525850641	4
2	6329	162958.713449271539	5
2	6338	163216.406078277299	4
2	6351	163376.804822495652	3
2	6364	163530.940373058999	4
2	6386	164015.956418694556	5
2	6390	164017.141938784871	6
2	6392	164129.851959603051	5
2	6397	164253.533701541347	4
2	6407	164518.838665308743	5
2	6411	164529.648892131804	6
2	6413	164561.92389875106	5
2	6421	164592.292221727294	4
2	6429	164880.096734142075	3
2	6437	165001.755782867295	2
2	6444	165130.227622858817	3
2	6448	165253.222129978552	4
2	6455	165285.406197064726	5
2	6461	165542.962124574557	6
2	6468	165568.872261110473	7
2	6482	165781.582146411906	6
2	6490	165924.317610690815	5
2	6496	166016.810155415146	6
2	6510	166318.563353177473	7
2	6513	166466.999733991558	8
2	6519	166622.194902671946	7
2	6525	166674.690385969045	8
2	6527	166703.527864454459	7
2	6547	166851.024382796768	8
2	6553	166991.112956715893	7
2	6559	167010.90411861535	8
2	6561	167092.136998510433	7
2	6573	167432.507769389523	6
2	6584	167782.373493796659	5
2	6591	167876.878252853213	6
2	6593	167898.202558228891	5
2	6599	167935.271415575669	6
2	6602	168006.258146590811	7
2	6604	168143.043648971689	6