version 2
run Iteration-38-20200521-09:53:03-39924
attr configname Iteration
attr datetime 20200521-09:53:03
attr experiment Iteration
attr inifile omnetpp.ini
attr iterationvars "$i=4, $j=3, $0=15-(4+3)"
attr iterationvarsf i=4,j=3,15-(4+3)-
attr measurement "$i=4, $j=3, $0=15-(4+3)"
attr network Network
attr processid 39924
attr repetition 0
attr replication #0
attr resultdir results
attr runnumber 38
attr seedset 38
itervar i 4
itervar j 3
param **.resourcePool.amount 4
param **.resourcePool1.amount 3
param **.resourcePool2.amount 15-(4+3)
param **.source.interArrivalTime exponential(6min)
param **.delay.delay uniform(4min,28min)
param **.delay1.delay uniform(10min,28min)
param **.delay2.delay uniform(4min,16min)
param **.allocate.resourceModuleName "\"Network.resourcePool\""
param **.allocate1.resourceModuleName "\"Network.resourcePool1\""
param **.allocate2.resourceModuleName "\"Network.resourcePool2\""
param **.deallocate.resourceModuleName "\"Network.resourcePool\""
param **.deallocate1.resourceModuleName "\"Network.resourcePool1\""
param **.deallocate2.resourceModuleName "\"Network.resourcePool2\""
param **.router.randomGateIndex "uniform(0, 1) > 0.2 ? 0 : 1"

vector 0 Network.allocate queueLength:vector ETV
attr interpolationmode sample-hold
attr title "queue length, vector"
vector 1 Network.allocate1 queueLength:vector ETV
attr interpolationmode sample-hold
attr title "queue length, vector"
vector 2 Network.allocate2 queueLength:vector ETV
attr interpolationmode sample-hold
attr title "queue length, vector"
vector 3 Network.sinkStat lifeTime:vector ETV
attr interpolationmode none
attr title "lifetime of arrived jobs, vector"
attr unit s
vector 4 Network.sink lifeTime:vector ETV
attr interpolationmode none
attr title "lifetime of arrived jobs, vector"
attr unit s
0	0	0	0
0	46	3342.127181850721	1
0	48	3376.850179753896	0
0	57	3549.856628984578	1
0	63	3853.960728462745	0
0	80	4280.177268755065	1
0	82	4292.366788324175	2
0	84	4544.831396251615	1
0	97	4549.198948369117	0
0	199	7142.825971651228	1
0	201	7286.996983290967	2
0	208	7532.410542432895	1
0	225	7703.820362159928	0
0	229	7757.277759084089	1
0	236	8071.817415876234	0
0	356	10858.91391154455	1
0	363	11013.317296369706	0
0	536	15732.380041469322	1
0	542	15976.929128500971	0
0	550	16110.851660146436	1
0	561	16224.202470137953	0
0	565	16517.620655746352	1
0	567	16543.404514040132	2
0	569	16600.774713061191	3
0	571	16737.136951228874	2
0	575	16823.235003716528	1
0	579	16974.735404797273	0
0	661	18916.543049586612	1
0	663	19002.334216425889	0
0	667	19014.161905652959	1
0	678	19459.172207790189	0
0	868	24475.06716382015	1
0	875	24562.183636761596	2
0	890	25045.937914744837	3
0	892	25227.170984820507	2
0	896	25266.476857818948	1
0	905	25395.493532563643	2
0	921	25700.806790466533	1
0	925	25762.981451231394	0
0	1065	28808.705171285265	1
0	1067	28939.49071852528	0
0	1077	29040.650173929552	1
0	1079	29116.152540866599	2
0	1090	29418.325769883026	1
0	1094	29428.371830130149	0
0	1494	40164.22481924829	1
0	1500	40359.556714561349	0
0	1582	42056.751454100108	1
0	1588	42300.540304092686	0
0	1592	42307.127256836769	1
0	1599	42663.791320009153	0
0	1812	47768.018230878314	1
0	1822	48023.279503018127	0
0	1826	48090.57153114867	1
0	1833	48188.703998196442	0
0	1857	48734.59713826634	1
0	1859	48738.730653974421	2
0	1861	48794.611405550507	1
0	1865	48895.830308240581	2
0	1867	48996.907271005193	1
0	1875	49008.747265833435	2
0	1877	49026.35163008468	1
0	1895	49337.703514527102	0
0	1899	49493.565347400163	1
0	1901	49802.232789776293	0
0	1959	51228.438698105655	1
0	1965	51379.803850284783	0
0	1985	51767.130512639213	1
0	1992	52027.785769004825	2
0	2003	52481.140302984227	3
0	2010	52726.300878091622	2
0	2014	52810.313623032538	1
0	2018	52895.271607652681	2
0	2028	53104.636686116795	1
0	2032	53265.996758813558	0
0	2036	53330.148119417307	1
0	2043	53636.716939272879	0
0	2061	53877.582710696738	1
0	2063	54014.169933280913	0
0	2322	61288.252406599767	1
0	2324	61316.18896944404	2
0	2330	61377.001327359104	1
0	2343	61442.008024576086	0
0	2506	65900.078588802851	1
0	2512	66167.652274945	2
0	2514	66296.165249462957	3
0	2520	66434.039873215625	4
0	2522	66547.401925349585	3
0	2527	66696.294892739489	2
0	2540	66776.525759571859	1
0	2548	66810.681627248775	2
0	2550	66927.283638160132	1
0	2554	67189.950746796629	2
0	2556	67220.001585605163	3
0	2558	67235.436285135979	4
0	2560	67288.555955836107	5
0	2567	67414.81233668939	6
0	2569	67420.604401105992	5
0	2573	67712.646042810567	6
0	2580	67798.960291312332	7
0	2582	67807.097718407586	8
0	2584	67915.57905828028	9
0	2590	68103.00931891983	8
0	2594	68164.329522089729	7
0	2598	68165.469346794687	6
0	2602	68233.760328229501	5
0	2606	68239.697291785068	6
0	2613	68293.538676330087	7
0	2619	68510.386086781423	8
0	2626	68529.294100953238	9
0	2628	68678.737666088544	8
0	2641	68922.261452380024	7
0	2659	69195.624067640094	8
0	2665	69333.334736922452	7
0	2669	69358.587190520003	6
0	2678	69507.08426053261	5
0	2686	69717.099994059854	6
0	2692	69843.122798086022	7
0	2694	69844.752560073121	8
0	2700	70307.258446352534	7
0	2704	70346.612594399586	6
0	2708	70448.336109487181	7
0	2710	70502.38186940869	6
0	2714	70557.162801647255	5
0	2728	70708.259783504554	6
0	2730	70836.52151414378	5
0	2738	71035.399504232608	4
0	2747	71186.537115530047	5
0	2749	71225.322790021055	4
0	2753	71278.037454472551	3
0	2757	71419.939700444802	4
0	2763	71602.634182968805	3
0	2767	71730.554717244559	2
0	2775	71765.943994748244	3
0	2782	71867.201783891753	2
0	2786	71884.018704850759	3
0	2793	72147.366648004596	4
0	2795	72433.492440472745	3
0	2817	72791.559946560929	2
0	2821	72877.022336141598	3
0	2823	72919.495502423481	2
0	2827	72964.013909023064	3
0	2833	73240.387094678336	2
0	2841	73292.898911859792	3
0	2858	73500.381745308684	4
0	2860	73594.794286067511	5
0	2862	73599.273780222968	4
0	2866	73733.695053122549	5
0	2880	73955.183727550052	6
0	2882	74025.830269070039	5
0	2886	74026.410722772979	4
0	2900	74379.613556082749	3
0	2909	74440.813087807665	2
0	2913	74516.633850136751	1
0	2917	74640.087931837872	0
0	2949	75709.34693046201	1
0	2951	75735.480748716199	0
0	3000	76480.778349457754	1
0	3006	76656.557558778131	0
0	3014	76844.749658688307	1
0	3016	76910.948667310837	2
0	3018	77165.136239102358	1
0	3027	77365.069886863809	0
0	3031	77425.52991881449	1
0	3047	77660.802079069817	0
0	3057	77791.666058929583	1
0	3059	77909.096928952565	2
0	3066	78006.196166065305	1
0	3070	78145.749557168607	0
0	3388	86431.978099165458	1
0	3390	86442.545252904415	0
0	3521	89653.275446728767	1
0	3528	89832.283160730419	0
0	3623	92202.779844700323	1
0	3630	92333.405783275441	2
0	3637	92615.68474709446	1
0	3641	92674.351412445201	2
0	3643	92844.628546839611	1
0	3652	93054.611961477317	0
0	3660	93182.046304484442	1
0	3671	93345.08451343409	0
0	3874	99145.976891194278	1
0	3885	99191.190320184237	0
0	3909	100025.642937923567	1
0	3911	100047.541621562695	0
0	4219	108260.878869449134	1
0	4221	108415.543862832817	0
0	4225	108464.081231816164	1
0	4236	108764.423823434579	0
0	4387	112179.560760682619	1
0	4393	112211.0687210115	0
0	4407	112709.609484915455	1
0	4409	112716.315884168458	2
0	4415	112843.708223491588	1
0	4419	112980.802598928944	2
0	4430	113290.3202805473	3
0	4432	113327.8007935475	4
0	4434	113369.797750591213	5
0	4436	113444.91529700689	6
0	4438	113544.130645737271	5
0	4442	113564.28792931271	4
0	4446	113587.785837364321	3
0	4464	114249.531396069948	2
0	4473	114361.818999532738	3
0	4475	114362.881909809688	2
0	4487	114616.766606171553	1
0	4491	114673.138596976996	2
0	4493	114810.105875155685	3
0	4495	114821.430389331654	4
0	4497	114836.7535653042	3
0	4510	115176.018385801098	4
0	4516	115335.961467598503	3
0	4520	115434.284281098887	4
0	4522	115521.345373989467	3
0	4545	115821.737688978141	2
0	4549	115837.747418634275	1
0	4553	115955.49394781515	2
0	4559	116170.776839772151	3
0	4561	116225.405724615077	2
0	4569	116290.911765993957	1
0	4578	116440.413929295674	2
0	4580	116479.145669849823	3
0	4592	116523.139168590526	2
0	4596	116550.332930019061	3
0	4598	116579.070605353086	4
0	4600	116699.384963364725	3
0	4604	117102.203288539926	2
0	4608	117120.091781533794	3
0	4614	117159.597110648578	2
0	4631	117431.434954344908	1
0	4635	117618.753072465639	2
0	4637	117719.781792152421	3
0	4639	117765.352745830816	4
0	4646	117944.761630437788	5
0	4653	117990.283671700459	6
0	4659	118146.24352727217	5
0	4663	118148.386366598527	4
0	4672	118581.326530121733	5
0	4674	118657.007877726978	4
0	4682	118694.132229886631	3
0	4690	118878.989747507499	4
0	4701	119005.991248676007	3
0	4719	119693.27264509346	4
0	4721	119824.424761317889	3
0	4729	120039.503795367605	2
0	4742	120201.984225661879	1
0	4746	120369.191285386364	0
0	5089	129132.730508898714	1
0	5091	129301.432889702388	2
0	5098	129379.164260534578	1
0	5111	129710.843907214313	0
0	5260	133624.837241830708	1
0	5266	133740.287614796282	0
0	5297	134352.055367335815	1
0	5299	134552.38535540068	0
0	5303	134558.509668723137	1
0	5305	134602.287004735292	0
0	5314	134635.731324350734	1
0	5324	134859.379436593719	2
0	5326	134966.955827417611	1
0	5348	135407.803123072746	2
0	5350	135575.892432629586	1
0	5354	135601.411684632913	0
0	5548	140556.054411591845	1
0	5550	140619.912352041419	2
0	5562	140899.20761811986	1
0	5566	140930.52225492037	2
0	5568	140941.20018223583	3
0	5570	140957.379742187766	4
0	5576	141107.131022483293	5
0	5582	141147.07137207279	4
0	5586	141269.158528073408	3
0	5595	141368.193351827711	4
0	5601	141842.521528476743	3
0	5605	142008.672791507921	4
0	5607	142017.325199431457	3
0	5616	142223.545696388576	2
0	5624	142281.127342614079	1
0	5633	142516.322301315038	0
0	5647	142897.503046564643	1
0	5654	142949.004446366696	0
0	5747	145476.751898320372	1
0	5749	145494.834010408902	0
0	5925	149575.35724628384	1
0	5936	149722.775780769099	2
0	5942	149921.3834855015	1
0	5946	149994.132250563186	2
0	5953	150047.756442675022	1
0	5957	150062.792303179873	2
0	5959	150195.340695153482	1
0	5967	150243.549097883983	0
0	6114	154704.751397998923	1
0	6116	154715.386901454789	0
0	6148	155730.741064702672	1
0	6150	155761.017681665222	0
0	6174	156068.688157361357	1
0	6176	156277.438969893117	0
0	6698	170344.160022389412	1
0	6700	170438.70155358078	0
0	6821	173930.176395190405	1
0	6823	174032.299835264927	0
0	6904	176412.806918301084	1
0	6906	176429.681134212138	0
0	6914	176455.355943652969	1
0	6916	176507.383583942699	0
0	6920	176556.176408407282	1
0	6932	176832.438703382279	2
0	6939	176927.399284108784	1
0	6951	177410.972558137608	2
0	6953	177532.483808311941	1
0	6975	177901.998683835687	0
0	6985	177985.988807072029	1
0	6987	178044.404113825201	0
0	6991	178056.290172839088	1
0	6993	178125.774793522703	0
0	6997	178235.375541324224	1
0	6999	178314.235951948701	0
0	7008	178405.93178368132	1
0	7014	178484.929441946866	0
0	7018	178501.310166730979	1
0	7020	178529.250669937994	2
0	7022	178547.84207346275	1
0	7026	178656.747838452898	2
0	7037	178861.252102762307	1
0	7041	179162.447315017032	0
0	7055	179412.759835905564	1
0	7061	179678.503177427281	2
0	7071	179788.459713844227	3
0	7078	179946.162205461203	2
0	7082	179957.063843475215	3
0	7084	180050.329769167425	2
0	7088	180318.739626988615	1
0	7092	180448.73838380783	2
0	7094	180545.873543400493	3
0	7096	180545.905916520451	4
0	7098	180610.748844677853	3
0	7107	180678.210816293801	2
0	7120	180839.351333474461	3
0	7122	180941.953709397796	4
0	7124	180943.030406029175	5
0	7130	181078.646241932954	4
0	7134	181177.509953016686	3
0	7138	181316.876537438273	2
0	7151	181525.244445230188	1
0	7155	181596.34185210967	0
0	7179	182104.859567578263	1
0	7181	182378.025278699158	0
0	7206	182665.29269311505	1
0	7212	182985.417971524176	2
0	7223	183048.629380736291	1
0	7227	183132.314186329237	0
0	7231	183225.469621875514	1
0	7233	183326.131430893156	0
0	7246	183735.525796079599	1
0	7248	183811.180758949874	0
0	7267	184213.000385761209	1
0	7269	184239.924882646497	2
0	7271	184537.242973256669	3
0	7278	184593.909693054064	4
0	7285	184615.841365132272	3
0	7289	184766.786846994373	2
0	7293	184790.810749035833	1
0	7301	184985.906790732706	2
0	7303	185035.103821355641	1
0	7316	185247.109464302499	2
0	7322	185383.237153354241	1
0	7326	185426.690367673097	0
0	7419	188145.163438150787	1
0	7421	188183.997702414483	2
0	7423	188205.935372699756	1
0	7435	188705.914360181444	0
0	7449	188864.182826492666	1
0	7456	188979.387851594447	0
0	7460	188980.500484210253	1
0	7462	189248.026441213447	0
0	7525	190724.91975633071	1
0	7532	190793.782166624745	0
0	7566	191786.367485913984	1
0	7568	191830.376089921349	0
0	7572	191887.25306724333	1
0	7583	191918.131666924605	0
0	7669	194244.380261400335	1
0	7676	194420.520253923391	0
0	7685	194612.594241312745	1
0	7687	194684.761797038056	0
0	7798	197218.682303985895	1
0	7819	197842.177157647356	0
0	7831	198155.402779804348	1
0	7837	198187.450621884133	0
0	7853	198757.059223799622	1
0	7855	198868.588483261962	0
0	7928	200580.386033162042	1
0	7935	200799.819328718529	0
0	8239	208943.14399180248	1
0	8241	208960.097305824688	2
0	8248	209062.497481705985	3
0	8250	209072.358792026333	4
0	8252	209082.674376440723	3
0	8256	209148.522259024601	4
0	8272	209490.30064147457	3
0	8276	209656.015458637158	2
0	8280	209774.092523316688	3
0	8282	209858.863422845804	2
0	8308	210149.068116596987	3
0	8310	210150.784468983789	2
0	8314	210161.179375419012	3
0	8316	210271.156579403758	4
0	8322	210554.005761598493	3
0	8326	210665.971956505079	4
0	8333	210742.979748853723	3
0	8337	210863.078857404436	2
0	8345	211017.565681467555	3
0	8356	211326.092444617391	4
0	8358	211355.31833895898	5
0	8365	211511.42545325061	4
0	8369	211555.218895336171	3
0	8378	211716.452178592867	4
0	8384	211906.520461374203	3
0	8388	212112.066471507098	2
0	8392	212178.800542389532	1
0	8400	212327.817694185467	2
0	8416	212605.821120073344	1
0	8429	212712.133324531221	0
0	8433	212951.462401143364	1
0	8435	213031.692163270332	2
0	8446	213238.033741981963	1
0	8459	213473.21625180312	0
0	8463	213582.87000778316	1
0	8465	213684.266100553401	2
0	8471	213698.502914630877	3
0	8473	213728.341039127412	4
0	8475	213910.883124889115	3
0	8479	213943.037269567396	2
0	8488	213992.676260334754	1
0	8492	214063.748238969996	2
0	8494	214086.372437400301	1
0	8502	214184.968534926137	2
0	8508	214446.82719504396	3
0	8510	214488.390509044077	2
0	8514	214521.119386503843	3
0	8531	214844.690585390983	4
0	8533	214848.265164689401	3
0	8541	214963.751306881511	2
0	8545	214979.622679760237	1
0	8549	215137.591765157681	2
0	8559	215407.591680294125	3
0	8566	215601.490140443225	2
0	8570	215619.928308348011	3
0	8572	215640.921977953294	2
0	8585	215841.66918148341	3
0	8592	215905.759272103512	2
0	8596	216025.237673708062	3
0	8598	216074.861376104202	2
0	8606	216377.437503354695	3
0	8617	216727.45701917758	2
0	8630	217044.51424907377	3
0	8632	217109.092400891264	2
0	8641	217274.415841819027	1
0	8645	217370.81190321364	0
0	8673	218000.754296605694	1
0	8680	218179.532675007081	0
0	9285	234434.719851670428	1
0	9292	234620.195200945057	0
0	9296	234704.734357150409	1
0	9298	234727.441194646829	2
0	9300	234804.873212299149	1
0	9304	234958.763673048947	0
0	9662	244015.762452115627	1
0	9664	244102.875458260733	0
0	9677	244549.580226879011	1
0	9679	244556.898121709843	0
0	9687	244661.582725893845	1
0	9689	244769.890233821379	0
0	9759	246193.042555702627	1
0	9761	246198.710609570429	2
0	9763	246255.773764463571	3
0	9778	246813.84246313788	2
0	9782	246841.995722283845	3
0	9789	246963.188196217366	2
0	9798	247300.901178772507	3
0	9804	247516.258412385997	4
0	9815	247623.584535437003	3
0	9819	247638.235914507712	2
0	9828	247736.095109227831	1
0	9836	248000.611151226282	2
0	9838	248026.09536418667	3
0	9849	248171.478612540423	4
0	9855	248197.066022250588	3
0	9868	248536.177010106221	2
0	9872	248643.184444812783	1
0	9881	248699.424094971929	2
0	9883	248797.84632647952	1
0	9896	249057.581194037381	2
0	9898	249204.523111460655	3
0	9900	249248.205652070888	2
0	9917	249561.341531687774	3
0	9919	249574.274768810506	2
0	9928	249837.239122817591	1
0	9941	250273.436450465158	2
0	9943	250316.412033570655	1
0	9947	250343.584598140623	0
0	9957	250596.234095357066	1
0	9968	250760.859309939392	0
0	10128	255609.847413363433	1
0	10130	255637.914954759793	0
0	10204	257491.266664486347	1
0	10210	257654.250161103212	2
0	10217	257805.872439066135	3
0	10219	258010.861919224123	2
0	10233	258247.034876632656	1
0	10237	258305.77180498941	0
0	10246	258494.410817138124	1
0	10252	258632.917541696794	0
0	10256	258633.942991696346	1
0	10266	258752.724607665439	2
0	10272	258981.260551549355	1
0	10276	259191.568168863259	2
0	10283	259243.228608683777	1
0	10287	259293.770295332338	0
0	10291	259428.382387605894	1
0	10298	259561.246442645649	0
0	10453	263942.911264020965	1
0	10459	264075.903801778325	0
0	10525	265347.519606389878	1
0	10527	265395.055021044376	0
0	10535	265527.050453671378	1
0	10551	265835.885603401723	0
0	10555	265965.875799204036	1
0	10561	266004.480013437944	0
0	10878	273918.644362787062	1
0	10888	274280.928783400927	0
0	10892	274337.909128051917	1
0	10894	274381.74054939762	2
0	10896	274588.706482558261	1
0	10905	274704.578468408	2
0	10907	274806.953293780929	3
0	10909	274851.286491830045	4
0	10915	274997.395272937103	5
0	10917	275059.832019585371	4
0	10921	275060.50059555379	3
0	10935	275143.383838127306	2
0	10939	275298.4843329334	3
0	10945	275430.025713382048	4
0	10951	275645.201079531323	3
0	10955	275663.891301083317	2
0	10969	275866.346716175973	1
0	10973	275930.657233601832	2
0	10975	276128.431721659657	3
0	10981	276177.786055936228	2
0	10990	276385.719772140335	3
0	10992	276432.096567785224	4
0	10994	276633.110071016047	5
0	11000	276678.240110485827	4
0	11008	276828.772286998292	5
0	11010	276860.950572660874	4
0	11019	277152.543983611464	3
1	0	0	0
1	36	3199.452024675183	1
1	38	3221.073708805717	0
1	50	3376.850179753896	1
1	52	3465.53031090065	0
1	99	4549.198948369117	1
1	101	4587.439275704092	0
1	107	4625.476452976619	1
1	113	4856.627040993382	2
1	116	4972.137287690934	3
1	119	4976.603230235865	4
1	121	5105.302935590927	3
1	141	5580.24727888474	4
1	143	5690.046294036951	3
1	148	6039.213478848298	2
1	153	6224.635803386337	1
1	166	6598.44730343451	2
1	183	6904.151031491197	3
1	189	7039.524446183712	4
1	194	7123.630910435651	3
1	203	7342.797511288595	2
1	210	7532.410542432895	3
1	220	7687.85056931316	2
1	227	7703.820362159928	3
1	231	7999.397774649744	2
1	238	8071.817415876234	3
1	241	8332.306155281334	4
1	255	8681.452606309882	5
1	260	8736.766197480221	4
1	265	8766.326591515682	3
1	271	8805.515455597957	4
1	273	8932.410709004548	3
1	279	8980.054707138837	4
1	282	9097.787891503524	5
1	299	9480.874283125544	6
1	305	9810.466399838916	5
1	314	10053.546807500101	6
1	316	10055.68924820393	5
1	322	10058.694035106166	6
1	327	10274.900454696228	5
1	340	10430.318431373244	6
1	358	10925.764617690515	5
1	365	11013.317296369706	6
1	367	11025.534367741785	5
1	372	11524.269797097852	4
1	377	11627.121504325188	3
1	387	11805.274850996302	4
1	394	12027.852632338166	5
1	397	12080.316514090571	6
1	400	12087.524415789877	7
1	409	12317.253648716725	6
1	418	12501.861422577833	5
1	423	12519.191736582365	4
1	444	13476.104564619567	5
1	446	13494.505638297346	4
1	451	13604.153779301561	3
1	456	14126.880231913139	2
1	462	14203.058130199849	3
1	488	14681.993809858036	2
1	494	14768.066699667452	3
1	500	14887.464454059352	4
1	503	14894.669969243225	5
1	508	15249.156204344473	4
1	518	15463.586706402084	5
1	523	15577.833189474379	4
1	528	15637.233620093834	3
1	544	15976.929128500971	4
1	556	16191.217866888038	3
1	563	16224.202470137953	4
1	573	16737.136951228874	5
1	577	16823.235003716528	6
1	581	16974.735404797273	7
1	587	17121.176694234793	6
1	592	17160.781246259507	5
1	597	17342.12818690925	4
1	603	17383.691700129985	5
1	606	17564.156289501386	6
1	613	17584.363943408582	7
1	626	17976.36581877615	6
1	631	17988.313761608374	5
1	640	18326.772262569285	4
1	656	18500.391780756789	5
1	665	19002.334216425889	6
1	673	19272.989386863966	5
1	680	19459.172207790189	6
1	682	19496.933823650402	5
1	688	19575.590740598679	6
1	698	19855.932224571227	7
1	701	19963.395035224329	8
1	703	20005.661199394382	7
1	713	20676.619501617762	8
1	718	20750.146484127228	7
1	724	20828.996676358157	8
1	733	20974.432493693826	7
1	739	21214.622056727388	8
1	741	21412.730897445	7
1	754	21624.615581119149	8
1	757	21736.963115941988	9
1	762	21834.467779140879	8
1	771	22007.10609434515	7
1	791	22499.888127450696	8
1	796	22767.230443101145	7
1	801	22769.744169640986	6
1	811	23034.104672261384	7
1	814	23044.506320288638	8
1	816	23185.402602631558	7
1	832	23590.456675462125	6
1	838	23885.427583737971	7
1	841	23918.05086735294	8
1	850	24160.295522635571	7
1	870	24554.151949290146	6
1	877	24716.893222829027	5
1	894	25227.170984820507	6
1	898	25266.476857818948	7
1	900	25380.004220282619	6
1	911	25564.412421876333	5
1	916	25642.751006003169	4
1	923	25700.806790466533	5
1	927	25762.981451231394	6
1	934	25850.273859806644	7
1	944	26253.651833572469	8
1	947	26402.658653709445	9
1	953	26722.067940676353	8
1	961	26775.835729692091	7
1	967	26931.318812768088	8
1	970	27030.741496686941	9
1	976	27145.645941937042	8
1	982	27226.936065846903	9
1	990	27561.986514873571	8
1	999	27626.446596024518	7
1	1009	27690.688762223369	8
1	1015	27845.213637979418	9
1	1020	28067.635254090352	8
1	1036	28447.620427916392	9
1	1039	28471.722202183753	10
1	1051	28706.842763213401	9
1	1060	28799.78735761135	8
1	1069	28939.49071852528	9
1	1072	28949.717433121334	10
1	1081	29156.858281468673	9
1	1092	29418.325769883026	10
1	1096	29428.371830130149	11
1	1103	29661.626698134321	12
1	1106	29708.225008988906	13
1	1108	29818.613195413492	12
1	1113	29868.847654167523	11
1	1123	30147.593750146844	12
1	1125	30185.775270279197	11
1	1137	30494.546934118263	10
1	1143	30541.722202574094	11
1	1146	30545.1085325148	12
1	1148	30676.914731444751	11
1	1169	31272.078296666734	10
1	1174	31504.832893408535	9
1	1196	32320.974890425761	8
1	1201	32344.734374558253	7
1	1209	32783.310893572636	6
1	1223	33114.298461802376	7
1	1225	33192.270886212547	6
1	1231	33229.681648529092	7
1	1237	33287.505771784103	8
1	1240	33309.497068648353	9
1	1242	33324.541862088887	8
1	1259	33948.507913689615	9
1	1261	33951.48506738588	8
1	1270	34231.971651235365	7
1	1276	34654.601317697239	8
1	1281	34798.309420807247	7
1	1286	34825.093866208268	6
1	1302	35084.257656339326	5
1	1308	35268.235858354909	6
1	1314	35693.408377425515	5
1	1326	35990.951821099927	4
1	1336	36098.154071897377	5
1	1338	36227.530009628905	4
1	1358	37092.712689399419	3
1	1367	37120.189655086586	4
1	1369	37121.737653635212	3
1	1377	37545.868107335602	2
1	1389	37744.024378707402	1
1	1399	37947.778905904077	2
1	1401	37955.208581037519	1
1	1411	38176.921007346687	2
1	1417	38311.452945716639	1
1	1422	38376.821198401742	0
1	1428	38476.60666220422	1
1	1433	38618.917503229973	0
1	1443	38938.107109138093	1
1	1456	39419.263307260049	0
1	1510	40687.25434124909	1
1	1516	40810.889195627871	2
1	1522	40895.979993041649	1
1	1535	41303.733333927162	2
1	1538	41346.303510744637	3
1	1548	41532.992545409737	4
1	1550	41547.286238772669	3
1	1555	41756.373850718185	2
1	1560	41823.308730641893	1
1	1590	42300.540304092686	2
1	1594	42409.964535124474	1
1	1601	42663.791320009153	2
1	1607	42764.784132713496	1
1	1612	42803.344321944333	0
1	1622	43084.129842781602	1
1	1628	43179.178770167749	2
1	1631	43324.822803609122	3
1	1634	43345.308440317021	4
1	1636	43444.900584599047	3
1	1648	43719.71339839498	2
1	1653	43864.652305603541	1
1	1668	44519.657298620834	0
1	1682	44676.586241675038	1
1	1685	44771.374393075748	2
1	1687	44832.270667184658	1
1	1692	44835.709857800849	0
1	1716	45319.261414984781	1
1	1719	45614.796141131935	2
1	1722	45965.570651822827	3
1	1724	45977.389205783649	2
1	1732	46244.035279922701	1
1	1741	46346.518940860279	0
1	1747	46421.462477552712	1
1	1752	46645.446669315963	0
1	1764	46787.101521806663	1
1	1778	47110.73809339316	2
1	1780	47144.258840842686	1
1	1785	47150.074546681591	0
1	1791	47155.835449514809	1
1	1796	47275.60483756107	0
1	1824	48023.279503018127	1
1	1828	48126.961375517814	0
1	1835	48188.703998196442	1
1	1837	48286.418202854567	0
1	1843	48389.756239819181	1
1	1852	48724.703481369234	0
1	1863	48794.611405550507	1
1	1869	48996.907271005193	2
1	1879	49026.35163008468	3
1	1885	49212.591038131961	2
1	1890	49336.137373266785	1
1	1897	49337.703514527102	2
1	1903	49802.232789776293	3
1	1906	49932.092743895928	4
1	1919	50173.567996639633	3
1	1924	50340.591839323334	2
1	1930	50364.2347302963	3
1	1933	50617.188853974958	4
1	1935	50786.548845562959	3
1	1947	51013.56772340466	2
1	1967	51379.803850284783	3
1	1970	51433.458865743404	4
1	1973	51436.003537757319	5
1	1987	51840.257106846712	4
1	1998	52311.854116590569	3
1	2005	52633.672463135838	2
1	2012	52726.300878091622	3
1	2016	52810.313623032538	4
1	2030	53104.636686116795	5
1	2034	53265.996758813558	6
1	2038	53478.722150330014	5
1	2045	53636.716939272879	6
1	2047	53798.583654137204	5
1	2052	53806.55915133287	4
1	2065	54014.169933280913	5
1	2068	54111.407252973784	6
1	2070	54121.43950135871	5
1	2080	54301.140562302438	6
1	2083	54458.987176368533	7
1	2090	54664.361372225325	8
1	2096	54919.6142658168	7
1	2101	55196.142864214301	6
1	2106	55250.153652457396	5
1	2132	56323.334164004649	4
1	2138	56381.524717056615	5
1	2140	56433.131397957496	4
1	2145	56441.169521963269	3
1	2151	56648.962008773168	4
1	2168	57491.752878619403	3
1	2176	57563.92387363116	2
1	2182	57578.317751796862	3
1	2184	57798.253971389077	2
1	2208	58513.251411289763	3
1	2210	58645.86975085181	2
1	2215	58689.493337426848	1
1	2221	58689.756280990219	2
1	2224	58868.889119321896	3
1	2227	58901.654174286411	4
1	2235	59165.333463810261	3
1	2251	59576.156231606893	2
1	2256	59780.534839564811	1
1	2266	59818.375006801661	2
1	2268	60126.042903974697	1
1	2281	60382.143344828077	2
1	2294	60488.757932236932	1
1	2302	60842.943075826436	0
1	2308	60925.630367764033	1
1	2313	60931.435644449543	0
1	2332	61377.001327359104	1
1	2334	61400.60207360848	0
1	2345	61442.008024576086	1
1	2348	61614.638351861161	2
1	2351	61663.927945018732	3
1	2356	61731.520566521089	2
1	2369	61925.926094704588	3
1	2375	62256.191034699756	4
1	2377	62265.640616841659	3
1	2386	62302.641721036799	2
1	2392	62353.440872996061	3
1	2395	62514.893473730086	4
1	2397	62526.598929297056	3
1	2410	62943.890511669457	4
1	2413	62974.398651932927	5
1	2419	63131.574953654658	4
1	2435	63661.865603296131	3
1	2440	63792.402939986952	2
1	2449	64185.135598426599	3
1	2459	64502.332524433609	2
1	2464	64599.710412653678	1
1	2470	64931.205619962735	2
1	2476	65181.947064647496	1
1	2501	65866.367102861282	0
1	2542	66776.525759571859	1
1	2552	66927.283638160132	2
1	2562	67395.176949780312	1
1	2571	67420.604401105992	2
1	2575	67742.52781272491	1
1	2592	68103.00931891983	2
1	2596	68164.329522089729	3
1	2600	68165.469346794687	4
1	2604	68233.760328229501	5
1	2608	68270.411857619866	4
1	2621	68528.35909756457	3
1	2630	68678.737666088544	4
1	2632	68747.308303946507	3
1	2643	68922.261452380024	4
1	2649	69098.198923991978	3
1	2654	69139.986070306949	2
1	2667	69333.334736922452	3
1	2671	69358.587190520003	4
1	2673	69447.0305197871	3
1	2680	69507.08426053261	4
1	2702	70307.258446352534	5
1	2706	70346.612594399586	6
1	2712	70502.38186940869	7
1	2716	70557.162801647255	8
1	2718	70586.779342876725	7
1	2723	70627.385108388945	6
1	2732	70836.52151414378	7
1	2740	71035.399504232608	8
1	2742	71067.672715866816	7
1	2751	71225.322790021055	8
1	2755	71278.037454472551	9
1	2765	71602.634182968805	10
1	2769	71730.554717244559	11
1	2777	71790.868236144989	10
1	2784	71867.201783891753	11
1	2788	71929.34783400593	10
1	2797	72433.492440472745	11
1	2803	72505.631750244525	10
1	2812	72634.907593369462	9
1	2819	72791.559946560929	10
1	2825	72919.495502423481	11
1	2835	73240.387094678336	12
1	2843	73392.655584283158	11
1	2848	73404.797208491691	10
1	2853	73463.32323849189	9
1	2864	73599.273780222968	10
1	2884	74025.830269070039	11
1	2888	74026.410722772979	12
1	2890	74148.015434266877	11
1	2895	74151.354834383339	10
1	2902	74379.613556082749	11
1	2904	74397.091632164993	10
1	2911	74440.813087807665	11
1	2915	74516.633850136751	12
1	2919	74640.087931837872	13
1	2934	75132.964486987958	14
1	2936	75263.630479778972	13
1	2944	75661.58285516499	12
1	2953	75735.480748716199	13
1	2955	75850.912546409272	12
1	2961	75929.591040896231	13
1	2964	75949.325013618902	14
1	2970	76047.689460310963	13
1	2979	76347.668233176914	14
1	2995	76461.872726097681	13
1	3008	76656.557558778131	14
1	3020	77165.136239102358	15
1	3022	77171.906055474639	14
1	3029	77365.069886863809	15
1	3033	77447.361563319318	14
1	3042	77651.890170182911	13
1	3049	77660.802079069817	14
1	3052	77742.055488311332	15
1	3061	77945.846252126604	14
1	3068	78006.196166065305	15
1	3072	78145.749557168607	16
1	3079	78245.48415873518	17
1	3085	78314.077486453826	18
1	3092	78482.684337508648	19
1	3098	78979.981564720971	18
1	3106	79070.332734143339	17
1	3112	79101.197069243322	18
1	3117	79317.303890522554	17
1	3126	79508.135383194069	18
1	3133	79591.401332511345	19
1	3136	79594.358111584012	20
1	3142	79958.191432421905	19
1	3152	80187.017842475235	20
1	3157	80512.485534736871	19
1	3162	80605.274690730475	18
1	3175	80739.119530828769	19
1	3188	81109.282648330203	20
1	3190	81141.099605942023	19
1	3198	81331.682235060244	18
1	3204	81452.847464422577	19
1	3210	81555.826287358977	18
1	3222	81699.516176735569	19
1	3233	82077.321496986863	20
1	3246	82354.672615991107	21
1	3252	82415.053123202794	22
1	3255	82455.774690767646	23
1	3257	82572.926880679903	22
1	3265	82772.584154061951	21
1	3270	82817.853949490919	20
1	3280	83237.03836245174	21
1	3283	83306.570117143182	22
1	3289	83501.816454004474	21
1	3295	83637.129764312303	22
1	3301	83760.713206782922	21
1	3309	83827.601683642594	20
1	3318	84429.845536254324	19
1	3326	84604.575150508419	18
1	3344	84775.468749637622	19
1	3349	85492.688977615787	18
1	3361	85747.919821828581	17
1	3370	85969.548523884252	16
1	3376	85990.202033234396	17
1	3392	86442.545252904415	18
1	3394	86443.01078445266	17
1	3399	86607.782102726377	16
1	3405	86657.141667647795	17
1	3407	86751.433588175089	16
1	3417	86893.258971869475	17
1	3424	87041.578836234164	18