version 2
run Iteration-86-20200521-09:56:24-72648
attr configname Iteration
attr datetime 20200521-09:56:24
attr experiment Iteration
attr inifile omnetpp.ini
attr iterationvars "$i=11, $j=2, $0=15-(11+2)"
attr iterationvarsf i=11,j=2,15-(11+2)-
attr measurement "$i=11, $j=2, $0=15-(11+2)"
attr network Network
attr processid 72648
attr repetition 0
attr replication #0
attr resultdir results
attr runnumber 86
attr seedset 86
itervar i 11
itervar j 2
param **.resourcePool.amount 11
param **.resourcePool1.amount 2
param **.resourcePool2.amount 15-(11+2)
param **.source.interArrivalTime exponential(6min)
param **.delay.delay uniform(4min,28min)
param **.delay1.delay uniform(10min,28min)
param **.delay2.delay uniform(4min,16min)
param **.allocate.resourceModuleName "\"Network.resourcePool\""
param **.allocate1.resourceModuleName "\"Network.resourcePool1\""
param **.allocate2.resourceModuleName "\"Network.resourcePool2\""
param **.deallocate.resourceModuleName "\"Network.resourcePool\""
param **.deallocate1.resourceModuleName "\"Network.resourcePool1\""
param **.deallocate2.resourceModuleName "\"Network.resourcePool2\""
param **.router.randomGateIndex "uniform(0, 1) > 0.2 ? 0 : 1"

vector 0 Network.allocate queueLength:vector ETV
attr interpolationmode sample-hold
attr title "queue length, vector"
vector 1 Network.allocate1 queueLength:vector ETV
attr interpolationmode sample-hold
attr title "queue length, vector"
vector 2 Network.allocate2 queueLength:vector ETV
attr interpolationmode sample-hold
attr title "queue length, vector"
vector 3 Network.sinkStat lifeTime:vector ETV
attr interpolationmode none
attr title "lifetime of arrived jobs, vector"
attr unit s
vector 4 Network.sink lifeTime:vector ETV
attr interpolationmode none
attr title "lifetime of arrived jobs, vector"
attr unit s
0	0	0	0
1	0	0	0
1	38	3279.419399286384	1
1	44	3676.701768045084	2
1	46	3720.054010184614	1
1	62	4654.786336807953	2
1	67	4845.746924489869	1
1	72	4890.823046858217	0
1	78	4935.04223338767	1
1	97	5581.325694678207	2
1	103	5684.644958493094	1
1	109	5780.753375432913	2
1	112	5821.718921706608	3
1	115	6135.977412099784	4
1	117	6143.435496105014	3
1	129	6472.580928406472	2
1	135	6570.298808875482	3
1	138	6722.810253533273	4
1	141	6881.117994774586	5
1	147	7029.562880214437	4
1	164	7458.868478783988	5
1	169	7632.342801955323	4
1	175	7917.676669666949	5
1	181	8433.60174326612	4
1	186	8703.927301238085	3
1	198	9523.746613352354	2
1	210	9757.969453264162	1
1	220	10059.407137841777	2
1	222	10131.714266272988	1
1	236	10873.675612505105	2
1	238	11327.991915358365	1
1	243	11696.83191439582	0
1	283	12670.83536556335	1
1	286	12723.035004569372	2
1	289	12801.749928470106	3
1	294	12980.203491602228	2
1	304	13287.863941157433	3
1	307	13536.041330797118	4
1	310	13571.124743061334	5
1	312	13581.282548978542	4
1	324	14052.708213212104	3
1	333	14256.865636547645	2
1	349	15158.698984551792	1
1	355	15188.442033037412	2
1	357	15194.985307077081	1
1	373	15878.488524155309	0
1	401	16701.613321073854	1
1	404	16718.288614358522	2
1	407	16888.976283698882	3
1	412	17142.268577972045	2
1	424	17464.464603227325	3
1	426	17649.774939969874	2
1	436	18097.689396145791	3
1	445	18460.648470542154	2
1	454	18772.848795730823	3
1	457	18807.880172190869	4
1	459	18817.552810702091	3
1	481	19417.307828488424	4
1	487	19633.902672536348	5
1	490	19688.632293121279	6
1	496	19711.731619909024	5
1	504	19892.267930072493	4
1	520	20317.263555149482	5
1	530	20576.904409393247	6
1	533	20664.17158097096	7
1	535	20705.956910699224	6
1	546	20922.237749120913	5
1	552	20996.443135836187	6
1	555	21063.439096011174	7
1	561	21376.926178180642	8
1	564	21564.448153906126	9
1	567	21598.912528486054	10
1	578	21780.21112112401	11
1	580	22153.508624008618	10
1	586	22155.95939729101	11
1	588	22246.930999625092	10
1	593	22794.638393877767	9
1	605	22978.312987666195	8
1	618	23206.752203355971	9
1	644	23848.250040519188	10
1	646	24372.167890288629	9
1	652	24619.070085683241	10
1	654	24632.664926470807	9
1	660	24651.908122460066	10
1	663	24812.978086275045	11
1	666	24841.151162812145	12
1	686	25362.616683017578	13
1	688	25640.388264770382	12
1	694	25749.750592515093	13
1	696	25760.966450897595	12
1	716	26269.705816446419	13
1	719	26387.732311907283	14
1	722	26431.578129255192	15
1	725	26477.459710138149	16
1	727	26552.35446894797	15
1	742	27336.428975518411	14
1	760	27982.817166999676	13
1	765	27992.809852817645	12
1	771	28189.501896249954	13
1	774	28332.469601448284	14
1	781	28487.58158058868	15
1	788	28570.308832764472	16
1	803	29178.658923515874	17
1	805	29270.41078972592	16
1	810	29333.512830904447	15
1	824	29804.436435524841	16
1	833	29918.707772760873	17
1	835	29931.794681278607	16
1	841	30090.741347263549	17
1	847	30379.687551030646	18
1	854	30645.150564819834	19
1	857	30712.969638451495	20
1	859	30719.605151973283	19
1	867	30966.891659770854	18
1	873	31047.906779899518	19
1	876	31323.900885576461	20
1	895	31975.145877115047	19
1	903	32298.523925265991	18
1	909	32413.10940652431	19
1	916	32736.604989632044	20
1	919	33033.061296972051	21
1	921	33036.179686039305	20
1	931	33275.003424774509	21
1	949	33815.811279362761	20
1	961	34296.948765658237	21
1	964	34371.739303154788	22
1	973	34617.143474071837	21
1	982	34812.284559125885	22
1	985	34812.619042676906	23
1	987	34958.812861100533	22
1	997	35096.558058590666	23
1	1000	35139.709865429688	24
1	1006	35361.51520011353	25
1	1016	35578.316401687397	26
1	1018	35717.491952571637	25
1	1024	36038.552135464424	26
1	1030	36433.980165545591	25
1	1036	36511.101570043087	26
1	1044	36999.385943794242	25
1	1053	37095.411414767378	24
1	1059	37102.088790531029	25
1	1070	37804.85986852049	24
1	1079	37884.948885499262	23
1	1089	38005.590869453688	24
1	1095	38173.047785413508	25
1	1106	38577.075378326076	26
1	1109	38738.063944018945	27
1	1115	39024.495304135588	28
1	1117	39080.276263113684	27
1	1122	39460.352985321306	26
1	1128	39716.298325349913	27
1	1151	40192.921173425428	28
1	1160	40318.64397968061	29
1	1162	40399.303324902049	28
1	1171	40534.067416642143	29
1	1176	40853.496089226328	28
1	1186	40916.808628357658	29
1	1189	41155.090218996529	30
1	1192	41169.711335721592	31
1	1206	41534.292343801581	30
1	1211	41706.234085624656	29
1	1221	41780.174207231422	30
1	1224	41900.046279941454	31
1	1230	42166.723260631179	32
1	1232	42187.421693776496	31
1	1237	42363.260965964178	32
1	1245	42427.728714436831	33
1	1251	42493.308963598302	32
1	1257	42851.432815815602	33
1	1268	43066.034289168813	34
1	1270	43295.396309932312	33
1	1281	43663.540278014489	32
1	1299	43895.887018395206	31
1	1309	44280.259630614233	32
1	1312	44285.732900648393	33
1	1315	44384.424752367807	34
1	1324	44577.832303664409	33
1	1330	44832.753165989119	34
1	1333	44891.275936311061	35
1	1342	45250.849308743218	36
1	1344	45265.433429730674	35
1	1356	45525.998380894535	34
1	1369	45923.416137063409	35
1	1372	45937.871256427345	36
1	1379	46151.359235290689	37
1	1381	46488.08560017752	36
1	1386	46793.387433876833	35
1	1399	47261.667968806503	36
1	1414	48006.078575572693	35
1	1425	48352.195284450045	34
1	1431	48475.607809157404	35
1	1434	48607.202381383391	36
1	1436	48644.580011025765	35
1	1441	48678.868251007845	36
1	1452	48888.118012103636	37
1	1455	48990.289311362346	38
1	1464	49177.08519825483	39
1	1471	49254.722335078006	40
1	1477	49433.234993836605	39
1	1482	49538.207617606586	38
1	1502	50055.025414587036	39
1	1505	50486.444613683371	40
1	1507	50511.126902329498	39
1	1513	50623.466538838885	40
1	1515	50954.440161501607	39
1	1521	51232.465300359269	40
1	1534	51832.657235844755	39
1	1539	51861.141449305779	38
1	1565	52790.570090215812	39
1	1568	52801.763572520025	40
1	1573	53030.708882848495	39
1	1582	53239.785173373247	40
1	1585	53266.12291504709	41
1	1587	53412.496400503061	40
1	1593	53587.255730699868	41
1	1596	53589.084985134223	42
1	1613	54051.383423754362	43
1	1615	54131.782895410053	42
1	1620	54160.806618363359	41
1	1626	54284.360050420847	42
1	1629	54321.447943809726	43
1	1646	54861.091574577312	44
1	1648	55156.285096130096	43
1	1656	55613.878321600698	42
1	1666	55902.696326743405	43
1	1681	56270.859945866042	42
1	1686	56383.917258483909	41
1	1692	56388.754461945027	42
1	1706	56910.705251256685	43
1	1708	56923.001097368771	42
1	1713	57112.899691797413	41
1	1726	57312.546265227923	42
1	1729	57329.743831821762	43
1	1735	57839.728557097637	44
1	1748	58337.659091824946	45
1	1751	58474.631538538511	46
1	1754	58498.234522287343	47
1	1756	58547.932813784802	46
1	1761	58565.418580313765	45
1	1767	58759.214674027701	46
1	1773	59366.938475615108	45
1	1782	59886.354006323584	44
1	1787	60133.457585734078	43
1	1826	61001.228336485564	44
1	1829	61020.564536462396	45
1	1832	61172.002787548897	46
1	1838	61408.307536400739	47
1	1840	61409.7112181127	46
1	1846	61635.343038110238	47
1	1848	61687.817842245796	46
1	1854	61872.907763535335	47
1	1866	62106.315624471374	46
1	1879	62384.124865587655	47
1	1882	62395.777413608947	48
1	1890	62515.472495586374	47
1	1899	62731.876528991955	48
1	1909	62879.280156763552	49
1	1916	63009.473318454143	50
1	1922	63472.850181504617	51
1	1924	63494.650083919607	50
1	1930	63557.639186485686	51
1	1942	63953.087341778674	50
1	1948	64304.213602449309	51
1	1951	64314.844624640623	52
1	1958	64376.367109941138	53
1	1963	64620.455060582228	52
1	1972	64745.062232563016	53
1	1975	64944.042048618337	54
1	1978	65127.189043074796	55
1	1980	65310.222742305689	54
1	1990	65392.087524212161	55
1	1998	65632.278231804022	54
1	2016	66169.403535499789	53
1	2029	66740.063298412362	52
1	2035	66813.468829421245	53
1	2038	66911.401637879398	54
1	2041	67078.082611007306	55
1	2044	67276.600903987424	56
1	2046	67410.112426736944	55
1	2051	67483.580980787748	54
1	2056	67508.599007503277	55
1	2067	68051.883811261126	54
1	2089	69061.983870670894	53
1	2098	69222.842370958903	54
1	2100	69272.906850212806	53
1	2110	69401.168989158558	54
1	2119	69569.273205301598	55
1	2122	69851.080194185463	56
1	2128	70151.798827799732	55
1	2144	70708.857741901688	56
1	2146	70925.138631034264	55
1	2152	70993.779471383144	56
1	2155	71048.850719966517	57
1	2160	71184.933098603735	56
1	2175	71327.878437376113	57
1	2182	71514.001416084589	58
1	2191	71790.743995469759	57
1	2197	71800.323488987361	58
1	2202	71831.944902175659	57
1	2217	72548.18335613198	56
1	2222	72561.240235746602	55
1	2232	72811.732390795291	56
1	2235	72824.792701616684	57
1	2241	73017.340403598657	58
1	2244	73059.193643881068	59
1	2247	73255.796779100635	60
1	2254	73358.342782861886	61
1	2266	73665.892760380724	60
1	2272	73795.680521760025	61
1	2277	73961.861591686259	60
1	2287	74421.832675018222	61
1	2290	74513.847550366074	62
1	2299	75045.944351860875	61
1	2305	75220.820136059138	62
1	2307	75253.017413078572	61
1	2317	75435.415162802726	62
1	2326	75882.081300271297	61
1	2338	76732.692658019017	60
1	2347	76802.399297449248	61
1	2350	77063.3916782135	62
1	2356	77341.789842508355	61
1	2364	77752.709560573797	60
1	2380	78306.662503052476	61
1	2385	78496.6711050827	60
1	2395	78765.792839829328	61
1	2401	78947.187643426235	60
1	2407	79014.546624604368	61
1	2413	79313.400905484068	62
1	2419	79473.428045886774	63
1	2421	79598.674655072013	62
1	2426	79614.880656360413	61
1	2443	80160.527715493514	62
1	2445	80225.048337581332	61
1	2454	80267.895773473291	62
1	2460	80497.747813863302	61
1	2466	80814.298012692854	62
1	2475	81106.270708944271	61
1	2484	81237.252708834361	60
1	2490	81298.110252539235	61
1	2500	82177.786866966258	60
1	2505	82315.978830515172	59
1	2511	82581.612856740568	60
1	2527	83211.578861645188	59
1	2533	83214.671941069488	60
1	2535	83325.856236042078	59
1	2541	83503.4481139062	60
1	2557	84073.441827476721	59
1	2565	84269.492096947129	58
1	2582	84702.240499198461	59
1	2585	84803.419352262691	60
1	2587	84888.098194098797	59
1	2593	85130.638120125386	60
1	2600	85342.57635466799	61
1	2608	85553.57807889543	60
1	2614	85982.35615839927	61
1	2616	86200.196733821881	60
1	2625	86347.391777611269	61
1	2634	86668.872732109944	60
1	2646	87027.130531587404	59
1	2655	87136.530333504015	60
1	2675	87662.759543995673	61
1	2678	87703.025354148555	62
1	2681	87837.514503394712	63
1	2684	87897.871290789707	64
1	2686	88181.834468952934	63
1	2692	88264.428638742023	64
1	2697	88383.936966762644	63
1	2703	88460.679485038087	64
1	2710	88967.07176456137	65
1	2719	89294.43309625573	64
1	2730	89417.873312274691	63
1	2739	89720.589463678912	64
1	2752	90056.814269573836	65
1	2762	90466.767542389231	66
1	2764	90478.773885471369	65
1	2770	90574.528022857642	66
1	2772	90727.628031980943	65
1	2782	90840.676754615148	66
1	2792	91239.036860570445	67
1	2797	91458.99500936232	66
1	2802	91474.124151983064	65
1	2814	91660.845209859012	66
1	2820	92033.211072512031	67
1	2822	92063.463891530032	66
1	2836	92221.285181195298	67
1	2839	92455.883613980949	68
1	2841	92652.401221825507	67
1	2850	92892.19834815673	66
1	2856	92944.880080238741	67
1	2859	92985.269038204429	68
1	2864	93326.499182165366	67
1	2885	94001.377356913452	68
1	2887	94311.262279006418	67
1	2892	94327.126732356469	66
1	2914	94709.804807796905	67
1	2917	94729.958267124526	68
1	2930	95306.957825550182	69
1	2939	95496.041235057249	70
1	2941	95588.436457085977	69
1	2950	95630.481932751292	70
1	2952	95641.232396757927	69
1	2962	96030.693823752561	70
1	2965	96338.719409736421	71
1	2967	96405.103704975541	70
1	2977	96566.755280320937	71
1	2979	96741.92348328675	70
1	2985	96793.92186814232	71
1	2988	96921.499766421128	72
1	3002	97241.134393506396	73
1	3014	97649.858064787441	74
1	3022	98013.524765623357	73
1	3028	98142.449587823011	74
1	3031	98354.815328472056	75
1	3036	98397.310839428332	74
1	3051	98789.820387288552	73
1	3060	98970.32533478401	74
1	3067	99266.773934509081	75
1	3074	99461.422472179096	76
1	3076	99630.31007134318	75
1	3087	99838.551706236553	74
1	3093	99876.246582874335	75
1	3099	99954.369416030798	76
1	3102	100066.214401342352	77
1	3115	100542.151538592529	76
1	3121	100610.136950176201	77
1	3124	100776.357617721003	78
1	3126	100782.872755918276	77
1	3139	101456.588259227196	78
1	3146	101581.069653891543	79
1	3148	101809.124699209583	78
1	3154	101921.192547370147	79
1	3156	101990.133635559675	78
1	3175	102568.016552117419	77
1	3180	102851.760063245517	76
1	3186	102916.4478937511	77
1	3196	103504.604886548498	78
1	3202	103652.570642213893	77
1	3213	103970.622468556043	76
1	3219	104040.741384672222	77
1	3229	104220.633439550366	78
1	3232	104221.588938643404	79
1	3241	104453.426788979766	78
1	3250	104538.819365411623	79
1	3278	105316.207757168198	80
1	3280	105329.402433813315	79
1	3289	105494.044716298563	80
1	3292	105681.714371414366	81
1	3295	105746.882556797942	82
1	3298	105771.481951930286	83
1	3301	105851.205993012311	84
1	3308	106059.03977796841	85
1	3311	106067.639479731772	86
1	3313	106075.321831311655	85
1	3322	106416.813155162484	86
1	3328	106578.469079707515	85
1	3334	106642.592014546719	86
1	3343	106938.988948240501	85
1	3348	107479.590447063324	84
1	3358	107558.379445578259	85
1	3364	107712.163884041423	86
1	3366	107807.887245304507	85
1	3379	108848.200337377143	84
1	3387	109081.425144755837	83
1	3396	109130.41495385786	84
1	3406	109303.994115314311	85
1	3415	109527.281847383459	86
1	3425	110206.278055263964	87
1	3431	110276.907894966267	88
1	3433	110489.953805170578	87
1	3438	110509.420335137052	86
1	3444	110777.525574601361	87
1	3447	111041.746307980541	88
1	3454	111170.905747603433	89
1	3459	111338.130730840144	88
1	3480	112001.213844343645	87
1	3485	112023.945995106128	86
1	3490	112025.358687866502	87
1	3496	112156.807390234481	88
1	3499	112243.001936683865	89
1	3516	112692.761436070082	88
1	3521	112776.003549564255	87
1	3526	112790.96818913856	88
1	3529	112952.248731522059	89
1	3532	113118.887774637296	90
1	3550	113251.989151275102	91
1	3565	113774.493852612352	92
1	3568	113825.415020291072	93
1	3575	113990.676789519661	94
1	3578	114016.695406543113	95
1	3581	114058.014925458451	96
1	3586	114264.858433783752	95
1	3591	114376.034362017734	94
1	3597	114537.087170925615	95
1	3600	114561.998549896035	96
1	3603	114675.748884954849	97
1	3622	115307.061259302077	96
1	3627	115382.878784220291	95
1	3646	115919.263254859335	96
1	3649	116067.656750004804	97
1	3656	116231.530554685171	98
1	3658	116289.347765650226	97
1	3673	116485.361051994064	98
1	3676	116717.82212204028	99
1	3679	116735.317920649341	100
1	3681	116780.191579975886	99
1	3694	116917.404413371025	100
1	3700	116985.704499320105	101
1	3703	117308.900897413212	102
1	3706	117366.574345183741	103
1	3712	117789.867447542725	102
1	3717	117900.598359582572	101
1	3730	118262.57299270426	102
1	3739	118568.097194705857	101
1	3744	119034.520330791919	100
1	3750	119176.063705627942	101
1	3753	119297.242750743586	102
1	3758	119351.478443800239	101
1	3775	119603.294520680231	102
1	3784	120178.917350976495	101
1	3792	120505.862752794846	100
1	3798	120515.455963869745	101
1	3801	120750.185430351735	102
1	3815	121119.749705553474	103
1	3824	121486.267923651416	104
1	3829	121646.535404727561	103
1	3834	121678.49639644809	102
1	3843	121797.476154843094	103
1	3852	122066.639568494856	104
1	3862	122352.908419232087	105
1	3865	122415.12888476494	106
1	3871	122517.380030541313	107
1	3878	122650.204366340245	108
1	3881	122661.144859996434	109
1	3883	122721.396489357203	108
1	3891	123184.853121519787	107
1	3900	123631.796804317487	108
1	3907	123689.57651372189	109
1	3909	123821.197364711761	108
1	3914	123853.177315148292	107
1	3927	124031.180253216419	108
1	3940	124652.832528948928	109
1	3947	124898.99044683922	110
1	3953	125150.618402474967	111
1	3955	125262.082911328971	110
1	3961	125326.781462450952	111
1	3963	125477.118907182245	110
1	3988	126593.311400096491	109
1	3994	126945.962642193167	110
1	4003	127028.879775007023	109
1	4009	127269.807524639774	110
1	4012	127407.210492490642	111
1	4019	127509.51260386407	112
1	4021	127604.694010316953	111
1	4039	128431.518626290141	110
1	4048	128644.514658288591	111
1	4058	128826.829901203162	112
1	4060	128925.537659516186	111
1	4066	129136.91239630912	112
1	4072	129349.582143503009	111
1	4078	129415.621950268186	112
1	4084	129712.067768965963	113
1	4093	129829.815739671065	114
1	4105	130329.959964140086	113
1	4113	130548.212760230154	112
1	4122	130881.242233112612	113
1	4132	131006.85439316812	112
1	4138	131017.917127264821	113
1	4141	131106.734117628712	114
1	4144	131230.287971070703	115
1	4147	131277.533798792315	116
1	4150	131300.906159693341	117
1	4160	131649.685244184836	118
1	4162	131779.514721752704	117
1	4173	132140.234662175877	116
1	4179	132150.481396797361	117
1	4182	132435.808382629123	118
1	4204	132889.104693578185	117
1	4210	132958.305526938331	118
1	4213	133013.848177014432	119
1	4223	133349.275642454058	120
1	4226	133548.929564217318	121
1	4231	133687.10301982495	120
1	4237	134012.431745514061	121
1	4243	134059.919214816684	122
1	4248	134142.572802723946	121
1	4258	134603.548609189241	122
1	4260	134715.65709016542	121
1	4273	135052.9185853362	122
1	4275	135066.257126051562	121
1	4291	135428.070173647481	122
1	4306	135725.985271336794	123
1	4308	135764.452450082405	122
1	4320	135822.442108457538	121
1	4326	135845.369558081203	122
1	4329	136125.537646791564	123
1	4343	136384.258895262857	124
1	4349	136556.242442328798	125
1	4351	136595.124508852838	124
1	4357	136618.946388507061	125
1	4362	136750.454820096123	124
1	4368	136755.815700470476	125
1	4371	136922.959091113275	126
1	4374	136953.147819480508	127
1	4381	137219.143544823493	128
1	4384	137402.857820268667	129
1	4396	137901.995954115643	128
1	4402	137905.953980081027	129
1	4407	138108.266164073351	128
1	4423	138537.299154981357	129
1	4426	138584.187776889757	130
1	4433	139136.557209866136	131
1	4435	139149.443126618493	130
1	4441	139319.421299324685	131
1	4443	139395.397427913501	130
1	4459	139928.630095757175	129
1	4464	140081.46471379581	128
1	4479	140532.531649982188	127
1	4498	141237.452945320635	126
1	4504	141250.768427816918	127
1	4510	141491.234166026027	128
1	4520	141980.183466988494	129
1	4525	142089.87188932449	128
1	4534	142197.965808051529	129
1	4537	142568.655335901003	130
1	4540	142600.452512575264	131
1	4546	142675.739467863693	130
1	4555	142913.92233512478	131
1	4558	142954.991078492894	132
1	4567	143289.221180667732	131
1	4573	143331.401845383004	132
1	4576	143375.685330003283	133
1	4578	143405.123679072364	132
1	4591	143727.671802459616	133
1	4600	144299.316155726789	132
1	4609	144468.683628688854	133
1	4612	144515.697489415725	134
1	4621	144748.778144819293	133
1	4631	145082.157652313553	134
1	4637	145805.076950137677	135
1	4639	145979.066035377561	134
1	4644	145985.245790453259	133
1	4659	146328.89691151552	134
1	4662	146334.784088531378	135
1	4672	146567.807375818288	136
1	4678	146751.977721033249	135
1	4684	146803.728483909887	136
1	4693	147461.837735939402	135
1	4698	147514.602120204597	134
1	4704	147902.091191254953	135
1	4715	148655.501163996191	136
1	4723	149031.279691348552	135
1	4728	149141.809086678181	134
1	4744	149426.313214247787	135
1	4750	149804.52308615807	136
1	4757	149961.657396529563	137
1	4760	150224.249612188086	138
1	4765	150374.55636084336	137
1	4771	150492.195404579394	138
1	4779	150734.649693462629	137
1	4788	150821.167779373203	138
1	4794	151033.290899881644	139
1	4797	151043.234122462384	140
1	4807	151300.327851737618	139
1	4813	151347.732913139597	140
1	4816	151425.716924942246	141
1	4834	152220.571038781434	140
1	4839	152410.190734294806	139
1	4845	152568.162842871211	140
1	4852	152917.578204593423	141
1	4868	153145.415342743529	142
1	4870	153277.969968327884	141
1	4876	153590.672775984295	142
1	4879	153607.975662899604	143
1	4881	153746.037456591382	142
1	4887	153868.002550830743	143
1	4898	154231.8509660369	144
1	4900	154569.594784611468	143
1	4912	155169.977305794835	142
1	4917	155491.986715532471	141
1	4930	156110.315605125159	140
1	4939	156505.075049101705	141
1	4941	156597.964115421851	140
1	4949	156714.210716265023	139
1	4959	156785.836564636922	140
1	4962	156944.866034306419	141
1	4975	157683.069385693178	140
1	4983	158140.121792526548	139
1	4992	158291.480421342656	138
1	5004	158787.765245381375	137
1	5010	158817.76741749977	138
1	5023	158875.255587852807	139
1	5026	158898.053467147309	140
1	5032	159252.956500289757	141
1	5044	159887.453345929042	140
1	5049	160126.498435446625	139
1	5065	160427.089661326263	140
1	5068	160526.199237392545	141
1	5071	160596.57561119303	142
1	5073	160989.992827179611	141
1	5079	161014.659799653567	142
1	5086	161084.666878693754	143
1	5089	161413.55586770277	144
1	5091	161517.438997989153	143
1	5113	162044.018249756426	142
1	5119	162616.780911496294	143
1	5126	162807.200732690945	144
1	5128	162956.793256895249	143
1	5137	163338.575177161935	144
1	5143	163694.210969771028	143
1	5152	164097.367217521747	142
1	5161	164362.742081699783	143
1	5167	164998.205640854879	144
1	5176	165258.406571999893	143
1	5181	165308.306764345249	142
1	5190	165627.585734783016	143
1	5203	166036.403570632575	144
1	5228	166253.478735573487	145
1	5231	166422.849510631655	146
1	5233	166710.394327379396	145
1	5239	166731.991748956983	146
1	5250	166874.199138379425	145
1	5256	167021.652519510725	146
1	5259	167042.713897569554	147
1	5266	167165.650752802612	148
1	5269	167180.020192381758	149
1	5272	167519.747628925639	150
1	5279	167601.786389365065	151
1	5281	167726.957667646563	150
1	5290	168000.846305938355	151
1	5293	168104.80209208641	152
1	5300	168349.700401334841	153
1	5302	168525.608974604637	152
1	5308	168743.183026288336	153
1	5310	169097.486793174973	152
1	5319	169352.842736041874	151
1	5334	169784.675149721658	150
1	5343	170129.344240176767	151
1	5353	170603.449572361639	150
1	5364	170778.625233418078	149
1	5383	171062.379299924035	150
1	5386	171182.104626927162	151
1	5393	171234.02533677442	152
1	5396	171243.7960302519	153
1	5399	171351.883368480635	154
1	5401	171476.778478314733	153
1	5410	171719.672056175257	154
1	5416	172005.439456223436	155
1	5422	172086.867821666182	154
1	5431	172305.573122994812	155
1	5441	172551.819667669045	156
1	5446	172801.300319314704	155
1	5451	173099.044105289137	154
1	5457	173170.623182281116	155
1	5460	173366.14806434005	156
1	5467	173911.74049877192	157
1	5476	174145.227554079846	156
1	5481	174179.575536278641	155
1	5501	174843.358561337909	156
1	5506	175262.355950995913	155
1	5515	175574.537282546912	156
1	5517	175810.791718077615	155
1	5523	175989.072546033824	156
1	5530	176128.259868217906	157
1	5542	176728.957804767048	156
1	5551	176973.525338339052	157
1	5554	176982.274247503778	158
1	5556	177049.038141027794	157
1	5565	177324.431961426404	158
1	5574	177422.70921386309	159
1	5588	178097.027578453303	160
1	5590	178109.977511595568	159
1	5596	178170.802193811437	160
1	5598	178238.802135589302	159
1	5607	178794.676917868374	160
1	5613	178821.220061750716	159
1	5630	179256.483492600353	160
1	5632	179267.266393502012	159
1	5638	179331.659623321294	160
1	5644	180096.564128482348	159
1	5650	180299.73370498556	160
1	5655	180529.578318086222	159
1	5664	180855.810820543772	158
1	5681	181872.804330089186	159
1	5683	181914.815193752528	158
1	5692	182021.046427401956	159
1	5694	182319.141149865097	158
1	5714	183152.07118650629	159
1	5720	183260.228269177223	160
1	5725	183453.723260573677	159
1	5730	183465.610505810709	158
1	5736	183552.098036478012	159
1	5747	184383.032006512594	160
1	5750	184394.476182724591	161
1	5752	184580.413864164383	160
1	5770	185011.818139003224	159
1	5775	185376.645104664148	158
1	5781	185400.589025941873	159
1	5784	185556.295178710674	160
1	5797	186320.181918882535	159
1	5802	186346.825150325529	158
1	5808	186448.424448163953	159
1	5822	187044.606559708165	160
1	5827	187130.834929628999	159
1	5843	187598.381957206084	160
1	5845	187685.716271288328	159
1	5851	188134.663019802742	160
1	5857	188556.113732795001	159
1	5866	188645.377416228919	160
1	5872	188779.759229137251	161
1	5874	189096.873396625377	160
1	5880	189096.909013830778	161
1	5886	189452.642929575176	160
1	5896	189765.599774140002	161
1	5901	189924.315860913701	160
1	5910	190254.832366986902	159
1	5922	190667.423775344722	158
1	5935	191092.950772641694	159
1	5947	191490.265138179766	158
1	5953	191548.96713071488	159
1	5959	192017.306151238026	160
1	5966	192097.767896888116	161
1	5968	192217.608191500984	160
1	5974	192675.925668604345	161
1	5981	192815.500487452431	162
1	5992	193095.665110557111	161
1	6000	193193.826218265675	160
1	6006	193351.271934940567	161
1	6016	193794.738601285785	162
1	6018	193867.59748127275	161
1	6031	194378.467903909258	162
1	6034	194561.455754499374	163
1	6036	194683.311702816518	162
1	6042	194687.626453537062	163
1	6045	194739.278985309907	164
1	6054	194909.004221288123	163
1	6067	195553.392757912877	164
1	6074	195823.758793817261	165
1	6088	196166.752030113348	164
1	6094	196228.812527287269	165
1	6096	196292.935771423163	164
1	6108	196652.648756725683	165
1	6111	196835.511687051226	166
1	6124	197032.150636159586	165
1	6142	197600.406054648559	166
1	6152	197684.626952918512	167
1	6154	197728.285376112544	166
1	6159	197737.269769769864	165
1	6165	197858.009941282516	166
1	6171	197890.412392245457	167
1	6174	198115.538720590015	168
1	6177	198141.274257401484	169
1	6188	198273.370463211149	170
1	6194	198296.885631738469	171
1	6197	198342.560388990238	172
1	6199	198407.676597069585	171
1	6205	198551.111070171265	172
1	6214	198932.48616107996	171
1	6220	198948.224055232963	172
1	6232	199515.654955226564	171
1	6241	199820.709026298807	172
1	6244	199892.605988080013	173
1	6246	199899.805876373084	172
1	6255	200135.424142130239	173
1	6262	200312.212641615664	174
1	6268	200604.94578549602	173
1	6273	200621.568324708151	172
1	6285	200883.859955249743	173
1	6294	201377.796048785331	172
1	6310	201889.813241133901	173
1	6316	202067.514798035481	172
1	6322	202070.889524812581	173
1	6334	202249.375667344589	174
1	6336	202534.21721047047	173
1	6342	202645.875140035243	174
1	6353	202894.624776672676	175
1	6355	203055.531275188186	174
1	6367	203344.348710387839	175
1	6370	203386.34435217691	176
1	6376	203578.12048704407	177
1	6378	203603.490151430251	176
1	6387	203848.813651127433	177
1	6394	204007.94374518012	178
1	6397	204117.506156451481	179
1	6402	204225.78502126933	178
1	6411	204587.784075096952	177
1	6423	204875.310642659006	178
1	6426	204945.255728921535	179
1	6432	205110.62677968257	178
1	6441	205190.934696338585	179
1	6448	205605.586789790074	180
1	6454	205630.136878930735	179
1	6460	205731.138217589851	180
1	6462	205764.400387880959	179
1	6490	206835.207219759705	178
1	6499	207117.55125136497	179
1	6505	207331.932435896722	180
1	6508	207369.345165605417	181
1	6517	207439.113434813552	180
1	6523	207460.411415038517	181
1	6529	207754.919900777014	182
1	6535	207891.430380377994	183
1	6542	208202.009373107532	184
1	6545	208213.007250307436	185
1	6550	208398.27886560257	184
1	6555	208573.173623941474	183
1	6564	208614.435222541263	184
1	6576	208821.236760961057	185
1	6583	209013.433888462873	186
1	6593	209276.86883800382	187
1	6596	209303.005913645594	188
1	6599	209651.149589920204	189
1	6604	209771.288551253038	188
1	6610	209977.897109355682	189
1	6619	210150.078544178613	188
1	6628	210234.757811206167	189
1	6631	210273.2640743401	190
1	6637	210553.637908493632	191
1	6639	210601.52537701908	190
1	6645	210786.242256747022	191
1	6658	211000.173952483977	192
1	6664	211224.522704071932	191
1	6669	211292.572573528397	190
1	6685	211935.643638260298	189
1	6691	212345.918943398543	190
1	6694	212426.469322409373	191
1	6697	212496.2247338155	192
1	6699	212604.609623190719	191
1	6708	213037.212247438364	190
1	6730	214012.929493247304	189
1	6739	214050.809759810868	190
1	6745	214283.334836743321	191
1	6751	214563.900193776571	190
1	6760	214631.900326497288	191
1	6763	214639.465556050947	192
1	6769	214920.137145357563	193
1	6775	215217.131139696561	194
1	6784	215371.092775317613	193
1	6793	215489.523238916218	194
1	6799	215926.529436061435	195
1	6805	216068.131488887229	194
1	6813	216086.419344509725	193
1	6822	216236.619790239581	194
1	6829	216543.48553178223	195
1	6839	216750.103294465667	196
1	6841	216849.45421407256	195
1	6852	217144.720827750498	194
1	6864	217302.958307915297	195
1	6870	217439.5964547818	196
1	6879	217670.674864929103	197
1	6886	217700.345927647159	198
1	6893	217990.14596460074	199