version 2
run Iteration-20-20200521-09:52:02-54904
attr configname Iteration
attr datetime 20200521-09:52:02
attr experiment Iteration
attr inifile omnetpp.ini
attr iterationvars "$i=2, $j=8, $0=15-(2+8)"
attr iterationvarsf i=2,j=8,15-(2+8)-
attr measurement "$i=2, $j=8, $0=15-(2+8)"
attr network Network
attr processid 54904
attr repetition 0
attr replication #0
attr resultdir results
attr runnumber 20
attr seedset 20
itervar i 2
itervar j 8
param **.resourcePool.amount 2
param **.resourcePool1.amount 8
param **.resourcePool2.amount 15-(2+8)
param **.source.interArrivalTime exponential(6min)
param **.delay.delay uniform(4min,28min)
param **.delay1.delay uniform(10min,28min)
param **.delay2.delay uniform(4min,16min)
param **.allocate.resourceModuleName "\"Network.resourcePool\""
param **.allocate1.resourceModuleName "\"Network.resourcePool1\""
param **.allocate2.resourceModuleName "\"Network.resourcePool2\""
param **.deallocate.resourceModuleName "\"Network.resourcePool\""
param **.deallocate1.resourceModuleName "\"Network.resourcePool1\""
param **.deallocate2.resourceModuleName "\"Network.resourcePool2\""
param **.router.randomGateIndex "uniform(0, 1) > 0.2 ? 0 : 1"

vector 0 Network.allocate queueLength:vector ETV
attr interpolationmode sample-hold
attr title "queue length, vector"
vector 1 Network.allocate1 queueLength:vector ETV
attr interpolationmode sample-hold
attr title "queue length, vector"
vector 2 Network.allocate2 queueLength:vector ETV
attr interpolationmode sample-hold
attr title "queue length, vector"
vector 3 Network.sinkStat lifeTime:vector ETV
attr interpolationmode none
attr title "lifetime of arrived jobs, vector"
attr unit s
vector 4 Network.sink lifeTime:vector ETV
attr interpolationmode none
attr title "lifetime of arrived jobs, vector"
attr unit s
0	0	0	0
0	22	3194.553481921861	1
0	28	3352.250161958637	0
0	93	5974.701451415813	1
0	95	6131.17463283974	0
0	104	6283.156537037001	1
0	106	6397.46541045364	2
0	112	6715.648867793263	1
0	121	7099.211463553721	2
0	127	7296.051768135307	1
0	140	7802.340545725105	0
0	149	8055.088594961964	1
0	151	8323.33065916586	0
0	175	8852.242714799161	1
0	189	9446.404706762681	2
0	199	9822.173987708867	1
0	208	9932.042026883467	0
0	213	10094.863592174263	1
0	215	10268.906476580223	2
0	217	10300.276471814617	1
0	226	10379.074028906899	2
0	228	10733.956274448192	3
0	230	10754.791143879176	2
0	235	10813.963205430652	3
0	241	10952.050485032143	4
0	247	11132.866863058543	5
0	249	11142.274395442113	4
0	258	11240.280704218216	5
0	260	11303.746620491373	6
0	270	11429.758423491627	7
0	276	11797.518873594583	6
0	289	12058.925589239884	7
0	291	12248.046591230962	8
0	293	12253.758733867422	9
0	295	12262.722947120548	8
0	304	12529.329537665948	7
0	313	12796.70402891835	8
0	315	12999.130504697443	7
0	344	13901.272424636885	6
0	349	14034.447930260599	7
0	355	14048.051933418727	8
0	357	14195.994963243486	7
0	366	14491.35562839739	8
0	368	14863.083713008567	7
0	373	15032.873321244021	8
0	375	15091.907127059878	7
0	384	15467.448256795438	8
0	390	15585.967106698557	7
0	395	15640.642562328119	8
0	397	15824.62371189365	9
0	399	15878.827124729634	8
0	416	16183.803726950603	9
0	426	16638.035759262622	8
0	439	16942.871258879098	9
0	441	17021.62164792975	10
0	443	17023.738390810669	9
0	452	17120.568173965915	8
0	457	17409.270626062872	9
0	459	17427.038628359836	10
0	469	17988.559308092851	11
0	475	18116.588021147192	12
0	477	18181.77861612445	13
0	479	18235.752763068779	12
0	492	18429.995781525851	11
0	509	18878.30037282995	12
0	511	18954.195554210349	11
0	516	19211.066270964072	12
0	518	19362.678100420638	11
0	527	19718.17540266681	12
0	529	19731.201583128026	13
0	539	19987.074474476159	12
0	556	20870.95623596619	11
0	565	21134.618031449898	12
0	571	21510.126071430624	11
0	576	21668.834758622692	12
0	582	21774.514695732399	11
0	595	22297.261033383696	12
0	597	22358.780804321051	11
0	602	22498.412319737341	12
0	604	22528.457197414757	13
0	606	22569.49726416777	12
0	627	23146.69484778355	11
0	632	23198.757065607829	12
0	634	23218.141435613704	13
0	648	23592.213244631768	12
0	653	23609.495067051278	13
0	659	23714.822183019085	14
0	677	24540.67130531232	13
0	686	24872.582501366616	12
0	691	24898.526982949817	13
0	693	25234.461650520445	12
0	698	25371.44871986902	13
0	704	25568.182211754111	14
0	706	25757.854059404239	13
0	715	26339.959737835929	12
0	720	26396.295191621003	13
0	726	26690.748635733819	14
0	732	26713.120014451326	13
0	737	26829.914383672934	14
0	743	26944.892233126897	15
0	745	27017.700442679108	14
0	762	27600.143825104937	13
0	771	27838.4429306923	14
0	773	27892.849790461243	13
0	782	28012.994827436111	14
0	796	28581.173783430959	15
0	798	28650.876799738512	14
0	807	28907.402838289619	13
0	812	28945.472203251685	14
0	814	28974.331726724344	15
0	820	29158.599049270034	14
0	825	29256.897632433579	13
0	830	29423.989622500353	14
0	836	29657.67998122412	13
0	873	30748.919408424304	12
0	882	30771.183171433956	13
0	884	30846.465448185683	12
0	889	30887.417248635621	13
0	891	30938.038254966357	14
0	897	31343.986334351503	15
0	907	31695.347754015134	14
0	912	31807.925893224657	13
0	917	31824.079445839024	14
0	927	32140.239072188616	13
0	948	33105.755606673539	12
0	953	33258.601765315208	13
0	959	33340.310638351844	12
0	972	34070.017463446104	13
0	978	34235.770683631182	12
0	987	34446.639756107584	13
0	989	34541.514087981091	12
0	998	34714.252100128074	13
0	1012	35384.163972587744	14
0	1014	35465.703411709439	15
0	1016	35727.274165828562	16
0	1018	35787.158538281721	17
0	1024	35859.721225693703	16
0	1029	35908.643534956978	15
0	1034	35981.665907950585	16
0	1040	36508.388053433127	17
0	1046	36718.962497536885	18
0	1048	37019.684040367485	17
0	1057	37141.562931715058	16
0	1070	37807.017074703028	17
0	1072	37833.091316773103	16
0	1081	37946.937871508182	15
0	1102	39007.111737421261	14
0	1107	39199.155948877216	13
0	1112	39327.351819501673	14
0	1126	40181.207148675022	15
0	1128	40198.35563099991	14
0	1137	40362.09879134586	15
0	1139	40377.149379346157	16
0	1141	40499.613234855116	15
0	1146	40564.345991799	16
0	1156	41219.540212547149	17
0	1166	41413.096009165009	18
0	1176	41806.599427974331	17
0	1181	41883.465879529596	16
0	1194	42706.570494561806	17
0	1196	42713.717462076354	16
0	1201	42898.845636907201	17
0	1203	42922.504165467808	18
0	1205	42940.719413727795	19
0	1211	42979.130819840837	18
0	1216	42985.503415342712	19
0	1222	43117.128804350395	20
0	1224	43246.551254026473	19
0	1233	43459.16120237392	20
0	1255	44016.129864464991	21
0	1257	44037.061029122314	22
0	1259	44179.303121945641	23
0	1261	44415.605520001162	22
0	1274	44758.145538687587	21
0	1279	44975.02004198095	22
0	1281	45406.248391924143	23
0	1283	45559.008270025134	22
0	1288	45599.360819758244	23
0	1290	45630.025264872719	22
0	1295	45762.776971207052	23
0	1297	46039.547193653762	22
0	1322	46734.691007071619	23
0	1324	46759.506920937691	24
0	1326	46851.236981889714	23
0	1343	47319.069968357563	22
0	1352	47660.235655273426	23
0	1354	47914.880318961923	24
0	1356	47935.466417711673	25
0	1358	48151.811997376263	24
0	1367	48346.0651394264	23
0	1376	48641.335432507711	24
0	1378	48835.667768226119	25
0	1384	48940.656785818856	26
0	1390	49029.078297066467	27
0	1392	49255.306341867109	28
0	1402	49601.628306254625	27
0	1411	50023.857827252259	26
0	1424	50450.864500151753	27
0	1426	50473.083665825307	26
0	1431	50478.447241476955	27
0	1433	50654.336309999341	28
0	1435	50671.325140914361	29
0	1437	50854.471361877368	30
0	1439	50875.725631162405	29
0	1448	51023.681044505587	30
0	1462	51559.182403728247	29
0	1467	51595.63675764065	28
0	1472	51617.675493733878	29
0	1474	51748.858315687998	30
0	1480	51948.763762107989	31
0	1494	52298.394007671991	32
0	1500	52455.1291066854	31
0	1517	52913.967189460874	30
0	1522	53161.341007641067	29
0	1527	53447.89868063126	30
0	1529	53594.828197926164	29
0	1534	53737.95948858421	28
0	1539	54031.469130283703	27
0	1544	54050.220110477594	28
0	1550	54093.053960844756	27
0	1563	54845.425157363003	28
0	1573	55041.524347008648	29
0	1587	55385.743372373165	28
0	1600	55465.377785459852	29
0	1602	55634.597114800026	28
0	1619	56296.867492302256	29
0	1629	56569.643180191399	28
0	1638	56814.722087597956	27
0	1643	57111.757001441825	28
0	1653	57440.123389221474	29
0	1655	57517.015509950902	30
0	1665	57764.456569390233	31
0	1667	57844.938281877448	30
0	1672	57893.245982326255	31
0	1674	57971.395089745404	30
0	1687	58423.63144894003	31
0	1689	58798.358271015567	32
0	1691	58821.073658681942	33
0	1693	58871.400164868799	34
0	1695	58925.802347667398	33
0	1700	59010.474799033468	34
0	1702	59066.886930792143	33
0	1711	59096.626796964892	34
0	1713	59251.492215833544	35
0	1719	59516.864916449895	34
0	1740	60338.961549669387	33
0	1753	60709.00702483069	32
0	1762	61026.823779805377	33
0	1768	61217.426609611622	32
0	1773	61560.991757519426	31
0	1782	62118.139223240199	30
0	1791	62206.408903699947	31
0	1805	62645.515447659901	30
0	1826	63444.540243975701	29
0	1831	63624.017735259892	30
0	1833	63639.948787479055	31
0	1835	63690.873632475617	30
0	1844	63820.55405457811	31
0	1846	63835.297890957833	32
0	1852	63937.885436795535	31
0	1857	63979.184393238359	32
0	1859	64188.597934088222	31
0	1872	64841.60038268502	32
0	1878	65257.050621378673	33
0	1884	65282.221138431243	32
0	1889	65283.301553198048	33
0	1903	65559.774372324231	32
0	1908	65683.15280827742	31
0	1913	65760.706782941075	32
0	1923	66255.584496193015	33
0	1933	66690.741550103857	34
0	1939	67119.313368767384	33
0	1952	67221.353485538177	32
0	1957	67305.574595019346	33
0	1963	68167.612615758202	34
0	1969	68256.912314622216	33
0	1982	68564.115907470608	34
0	1984	68797.013157278184	33
0	1989	68873.947110899024	34
0	1995	68895.211872859411	33
0	2004	69264.316550091987	34
0	2006	69312.380614830665	33
0	2011	69357.361183993403	32
0	2020	69726.674252340658	33
0	2030	70059.166635952775	32
0	2035	70203.090434523784	33
0	2037	70397.247884165969	34
0	2039	70434.523005998246	33
0	2056	70744.058577670268	32
0	2061	70792.2607593958	33
0	2067	71144.303660011403	32
0	2072	71201.844137245374	33
0	2074	71328.723249142346	34
0	2084	71498.973180845265	33
0	2101	71776.595844839715	34
0	2107	71892.931075401489	33
0	2112	71959.430969311408	32
0	2125	72357.714687853936	31
0	2134	72419.564203313104	30
0	2139	72531.115441359373	31
0	2141	72565.511391817145	32
0	2147	72585.584261722894	33
0	2153	72778.868472918753	32
0	2166	73083.135095676891	31
0	2179	73546.711701490254	32
0	2185	73735.032965517043	33
0	2207	74274.966200246028	32
0	2212	74282.799414850656	31
0	2225	74753.515069978644	32
0	2227	74756.999587705843	31
0	2236	75160.761027451958	32
0	2238	75283.806266456727	31
0	2247	75328.79614059694	32
0	2257	75571.555463439338	31
0	2262	75726.591551560628	32
0	2276	76127.540822252003	33
0	2282	76209.532454170171	32
0	2287	76314.633577871613	33
0	2293	76698.36164631683	32
0	2302	77155.591085622635	33
0	2304	77210.430548703782	32
0	2321	77575.742834536843	31
0	2326	77650.903412025325	32
0	2328	77729.378566823784	31
0	2337	78013.048636399094	30
0	2342	78122.314369222634	29
0	2355	78384.293825074915	28
0	2360	78477.718831847888	29
0	2366	78665.376158645861	28
0	2371	78779.054675143467	29
0	2401	79480.01519413247	30
0	2403	79530.688247240965	29
0	2408	79683.899368001633	28
0	2425	80068.768728941564	27
0	2442	80572.121703449645	28
0	2448	80624.425909622126	27
0	2461	81131.737089496012	28
0	2463	81140.652531318252	27
0	2472	81418.591126061773	28
0	2482	81693.786114290542	29
0	2484	81702.823979042356	28
0	2497	82042.655875164406	29
0	2499	82051.71622823041	28
0	2508	82877.754545293634	27
0	2513	82879.706447200224	28
0	2523	83097.674839575944	29
0	2525	83445.218204996102	28
0	2538	83552.619540884977	27
0	2543	83671.799545266738	28
0	2545	83804.645019834076	29
0	2551	84329.01102763403	28
0	2560	84473.965281151978	29
0	2574	84991.908037579172	28
0	2583	85286.036391236945	29
0	2585	85447.9246074373	30
0	2591	85614.130829244738	29
0	2596	85824.790463140719	28
0	2605	85911.276844860534	29
0	2607	86064.935579583134	30
0	2609	86151.058490826302	29
0	2614	86293.380857713407	28
0	2627	86710.20984408878	29
0	2629	86788.000372862928	28
0	2634	86828.212916110789	29
0	2660	87776.000316108971	30
0	2674	87972.903465077168	29
0	2679	88013.744692868107	28
0	2684	88117.366924967696	29
0	2686	88289.947339165233	30
0	2688	88303.653643778438	31
0	2690	88637.776928861853	32
0	2708	89457.601922310776	31
0	2713	89632.869969076031	30
0	2722	89840.449921384341	29
0	2727	90036.143887449651	30
0	2729	90139.369551391262	31
0	2731	90507.421878871664	32
0	2733	90644.589935059328	33
0	2743	90881.563477262742	32
0	2752	91233.304754166413	33
0	2754	91262.528712926918	32
0	2759	91304.491557335049	33
0	2773	91719.579594240291	34
0	2779	91930.797173835225	33
0	2784	92205.089267185443	32
0	2789	92320.195818684772	33
0	2815	93454.76021055866	32
0	2820	93720.380579000824	31
0	2829	93884.262351736314	30
0	2838	94491.719819298494	31
0	2844	94580.684202955652	32
0	2846	94590.186151002349	33
0	2848	94635.247395173553	34
0	2850	94755.31722459016	35
0	2852	94887.700641705208	34
0	2857	94924.678034503358	35
0	2863	95043.05046278829	36
0	2869	95286.393945410735	35
0	2874	95299.332752069943	34
0	2879	95361.438052192556	35
0	2885	95567.048626996464	34
0	2890	95584.061449310296	33
0	2895	95716.472561654955	34
0	2897	95875.689631926653	35
0	2907	96257.037158227079	34
0	2916	96379.257978677932	35
0	2918	96487.112265656318	36
0	2936	96692.114963278062	35
0	2949	97083.922066865974	34
0	2978	97909.849596187675	35
0	2984	98244.178788371272	34
0	2989	98246.038235005429	35
0	2995	98527.194686299675	34
0	3000	98701.428334935049	35
0	3002	98748.934381037844	36
0	3004	99160.246964029856	35
0	3009	99205.216115126587	36
0	3011	99418.779773405307	35
0	3016	99558.642879807378	36
0	3022	99717.22696938449	37
0	3028	99919.318792765971	38
0	3030	99998.151362087946	39
0	3036	100061.468868619316	38
0	3045	100354.288988643645	39
0	3055	100585.084077276178	38
0	3076	101072.615112716819	39
0	3078	101355.461819297049	40
0	3084	101485.256880401187	39
0	3089	101487.744888724595	40
0	3091	101632.493788234778	39
0	3096	101728.373001117983	40
0	3098	102092.389405091219	41
0	3104	102444.752527630214	42
0	3106	102659.172834037357	41
0	3111	102679.51496300868	42
0	3113	102893.786220632211	43
0	3115	103049.19145156432	42
0	3128	103441.001085536558	43
0	3130	103546.669566974511	44
0	3144	103776.156218659853	45
0	3146	103958.092535986119	44
0	3151	104076.617912187941	45
0	3153	104128.05324478231	46
0	3155	104167.539522804209	45
0	3164	104310.129503566659	46
0	3170	104378.146025338004	47
0	3172	104423.744792249614	48
0	3182	105027.119064248384	49
0	3184	105132.415785834082	48
0	3197	105435.80271312004	49
0	3199	105526.708735591286	48
0	3208	105732.320290169485	49
0	3210	106158.810360458799	50
0	3220	106704.536476254352	49
0	3225	106743.163993796819	48
0	3230	107023.123967621803	49
0	3236	107313.739142217548	50
0	3242	107844.667786388212	49
0	3251	107873.285170987137	48
0	3256	107917.397352422079	49
0	3270	108910.855452488682	50
0	3272	108976.873905679714	51
0	3278	109069.739923290914	52
0	3280	109176.337441457921	51
0	3285	109350.570994585641	50
0	3290	109522.17704257475	51
0	3300	109794.612846589201	50
0	3313	109905.619282162887	51
0	3315	110075.388197943457	50
0	3328	110236.725379576655	51
0	3338	110744.937167878287	52
0	3340	110767.521772839018	51
0	3345	110771.383933845504	52
0	3347	110865.371802366283	53
0	3349	110917.466570425784	54
0	3351	111026.251163705571	55
0	3353	111101.364995136746	54
0	3358	111252.511760172622	55
0	3360	111325.473650336988	56
0	3362	111411.75367201727	55
0	3379	111750.500579244011	54
0	3392	112092.592774459705	55
0	3402	112430.928518746415	56
0	3412	112612.507870055624	55
0	3425	113395.515499776715	54
0	3430	113728.125335977071	55
0	3432	113929.347122216916	56
0	3442	114285.980558179208	55
0	3451	114777.502138464179	56
0	3453	114843.443558319026	55
0	3458	114855.697777353116	54
0	3471	115051.578257097292	55
0	3481	115719.901418036019	56
0	3483	115936.916141182073	55
0	3496	116390.152765168363	54
0	3501	116598.28148626525	53
0	3510	116951.938094138662	54
0	3516	117141.12065691876	55
0	3518	117144.409116250117	56
0	3524	117184.630850858875	55
0	3529	117320.881860729359	56
0	3531	117530.582610285396	55
0	3536	117686.12608231467	56
0	3542	117965.230289502556	55
0	3547	118083.013080738374	54
0	3560	118217.554311938665	55
0	3562	118349.264040776725	56
0	3568	118376.76546661379	57
0	3570	118472.196263805562	58
0	3572	118526.807232263721	59
0	3578	118771.013092363045	60
0	3584	119016.463315282488	61
0	3586	119024.884267850334	60
0	3603	119170.439640211467	61
0	3605	119340.203167904009	62
0	3611	119478.113119332606	61
0	3616	119629.824989485328	62
0	3622	119748.74238105509	63
0	3624	119762.051622129866	62
0	3637	120016.969261011595	61
0	3646	120287.357479219465	62
0	3648	120413.586494539838	63
0	3658	121283.735459789523	62
0	3667	121517.651576092953	61
0	3684	122044.909772656747	60
0	3689	122212.86339632214	61
0	3695	122281.975286817664	60
0	3700	122452.118156932183	59
0	3705	122790.656744025536	58
0	3714	122823.518893578894	59
0	3732	123573.250435246641	58
0	3737	123593.009274331584	59
0	3751	123919.247216291614	58
0	3772	124512.16898392059	59
0	3774	124540.022945947327	60
0	3776	124670.452536564696	61
0	3778	124822.610651553902	62
0	3780	124950.987325057276	61
0	3793	125093.165804185349	62
0	3795	125147.809223956663	63
0	3797	125248.332944987828	62
0	3802	125371.002414896416	63
0	3812	125730.188234071593	64
0	3814	125901.809376581127	63
0	3823	126014.573449313529	62
0	3828	126204.542432527017	63
0	3834	126477.764916038627	62
0	3843	126658.87254014274	63
0	3849	126843.373596524501	64
0	3851	126852.506234392412	63
0	3856	127148.89936980594	62
0	3865	127561.88282189755	63
0	3871	127638.610077901299	62
0	3876	127697.180391472953	63
0	3878	127770.857447209767	64
0	3880	127771.234385292582	65
0	3890	127952.740015117939	64
0	3903	128333.411292925366	63
0	3912	128369.750899568261	64
0	3922	128662.31992065024	63
0	3939	129309.178287825104	62
0	3952	129849.182358648929	63
0	3954	129853.685295477399	62
0	3959	130046.156345895048	61
0	3968	130542.919240956386	62
0	3970	130587.688606968246	63
0	3972	130630.103142550703	62
0	3981	130845.861661217996	61
0	3990	131081.087089023109	60
0	4011	131629.4403342231	59
0	4036	132292.640023185428	58
0	4041	132317.716175064334	57
0	4046	132480.286216584196	58
0	4060	132856.511766119417	57
0	4077	133457.255753435084	56
0	4082	133609.341496741887	55
0	4091	134076.406271299835	54
0	4108	134383.155779580447	55
0	4110	134518.432755707949	56
0	4112	134526.609112312186	57
0	4126	135070.37939184148	56
0	4139	135268.003851688023	55
0	4156	135700.685241683972	56
0	4158	135750.805023468921	55
0	4167	136140.449213132152	54
0	4172	136249.529592374202	55
0	4174	136292.27233006859	56
0	4176	136307.761332355697	57
0	4178	136409.520860156532	56
0	4183	136540.300581641437	57
0	4193	136904.182944750208	58
0	4195	136925.548886229618	59
0	4197	137085.299071676919	58
0	4202	137287.627669745679	59
0	4216	137747.880317615697	60
0	4226	137949.996297760423	59
0	4231	138018.602365076432	58
0	4236	138149.549053613581	59
0	4246	138215.356855469123	60
0	4248	138465.084049283083	59
0	4257	138774.063628201851	60
0	4259	138934.967702772794	61
0	4261	138947.629964976128	60
0	4270	139244.435482628534	59
0	4275	139406.512273470059	60
0	4281	139563.972772619328	61
0	4295	140218.387440881248	60
0	4300	140280.780044568772	61
0	4306	140476.729304760585	60
0	4315	140751.795134786819	61
0	4325	140920.054275140057	60
0	4330	140958.048579684015	59
0	4347	141315.855112898221	60
0	4349	141562.162939379734	61
0	4351	141720.269225842006	62
0	4353	141757.089384249479	63
0	4359	141817.049068033586	62
0	4372	142155.586041687544	61
0	4377	142187.637536145318	62
0	4383	142361.70334551713	63
0	4385	142453.320198790941	64
0	4391	142519.480402314695	65
0	4393	142620.946649937447	64
0	4398	142672.376085637211	65
0	4404	142827.607444979141	64
0	4417	143134.530574819985	65
0	4419	143165.514410741518	64
0	4424	143310.190518749759	65
0	4426	143373.511180398703	66
0	4436	143658.65200362217	65
0	4457	144373.725840328749	64
0	4466	144444.734979349176	65
0	4468	144600.267364396602	66
0	4470	144687.097609026382	67
0	4472	144756.188263809796	66
0	4477	144800.867291211973	65
0	4486	145058.807512066076	66
0	4492	145168.136885529237	67
0	4494	145216.72970903938	68
0	4496	145440.140684440623	67
0	4501	145525.764360046502	66
0	4518	146182.081369003769	65
0	4543	146680.743197843324	64
0	4548	146705.853716786086	65
0	4550	146713.318172945198	64
0	4559	146996.942409023534	63
0	4568	147152.314934662536	64
0	4574	147199.722373551246	63
0	4579	147208.282081618178	64
0	4581	147244.156230912304	65
0	4583	147432.455784611295	64
0	4592	147574.29681215287	65
0	4598	147773.764477379511	64
0	4607	147860.977658601619	65
0	4613	148088.42611504442	66
0	4622	148197.721057339128	65
0	4648	148694.58551438387	66
0	4654	148903.830755025039	65
0	4659	149047.931882605492	66
0	4665	149564.744950918524	67
0	4667	149597.429125300165	66
0	4676	150188.624157635983	65
0	4685	150325.077925823057	66
0	4687	150384.238060720156	65
0	4700	150570.975386789557	64
0	4705	150591.609645193297	65
0	4715	151034.975810152151	66
0	4721	151442.097862874235	67
0	4723	151591.814357406017	66
0	4728	151630.345974237356	67
0	4742	151916.689684137593	66
0	4747	151946.738369809663	67
0	4749	151984.847463509556	66
0	4758	152350.368520624827	65
0	4779	152668.041426851776	66
0	4781	152758.511097848307	65
0	4786	153042.329630140504	66
0	4788	153333.166963560995	65
0	4801	153553.35331399728	64
0	4806	153589.136941647645	63
0	4815	153739.710631892764	64
0	4817	153882.050983649108	65
0	4827	154139.293418086957	64
0	4836	154175.708197742594	65
0	4846	154446.813706551614	66
0	4852	154578.088883782103	67
0	4854	154661.367750435959	66
0	4863	154681.444139836323	67
0	4869	154869.815854719397	66
0	4878	155260.775404815046	67
0	4884	155509.4229797792	68
0	4898	155879.04204849888	67
0	4915	156211.279895769515	68
0	4917	156219.88987485927	67
0	4922	156497.253548608608	68
0	4924	156585.326019719135	67
0	4929	156630.506667672912	68
0	4931	156798.557630545017	67
0	4940	156838.060181312965	68
0	4950	157505.267291053253	69
0	4956	157630.148442714032	68
0	4969	157907.721031203758	67
0	4990	158824.601775398966	66
0	4995	158983.362499551967	67
0	5005	159261.008228108179	66
0	5018	160030.748044036221	65
0	5023	160240.189246936258	64
0	5040	160703.288684904468	63
0	5045	160707.204269994891	64
0	5047	160798.351816088667	65
0	5049	160869.150775289651	64
0	5058	161022.252186471338	65
0	5068	161413.008998012417	66
0	5070	161559.958887985464	65
0	5075	161655.21499934998	66
0	5077	161668.569118611407	65
0	5082	161695.137620274183	66
0	5084	161829.654248559095	67
0	5086	161961.514623044547	66
0	5115	162702.690948274515	67
0	5117	162759.449191199476	68
0	5119	162860.713207245545	69
0	5121	162938.192215904486	68
0	5126	162996.528262309598	69
0	5148	163507.284977278229	68
0	5153	163643.961755667672	69
0	5155	163693.511741931131	70
0	5157	163730.329584033078	71
0	5159	163825.495196067328	72
0	5161	163934.985905222487	71
0	5170	164236.310587026075	72
0	5176	164863.198349504289	71
0	5189	165472.802889694777	72
0	5191	165557.095752850067	71
0	5208	165785.537625393388	70
0	5213	165842.806435273246	71
0	5215	165980.648207723831	72
0	5217	165998.037423416761	73
0	5223	166203.75529712984	74
0	5225	166332.085214413595	73
0	5234	166618.834919604331	74
0	5236	166722.471796714352	75
0	5238	166745.376481628535	74
0	5247	166928.411665283038	75
0	5249	166943.74275730733	76
0	5251	166974.063664042354	77
0	5257	167353.780955009055	76
0	5270	167678.49263512141	77
0	5272	167755.407439943079	78
0	5274	167761.10039075702	79
0	5284	168024.787516173126	80
0	5286	168172.365880535384	81
0	5288	168293.246806031583	80
0	5293	168365.156881667566	79
0	5298	168461.632103641253	80
0	5304	168598.062890649822	81
0	5306	168612.876843167959	80
0	5311	168927.863406722853	81
0	5313	168985.090068423928	82
0	5323	169208.494738535368	83
0	5329	169284.024967967215	84
0	5331	169505.312973401068	83
0	5336	169604.651848543787	84
0	5338	169612.242736433928	85
0	5340	169643.16735853244	84
0	5361	170184.475746840466	85
0	5367	170854.478598840427	84
0	5372	170863.069199353612	85
0	5374	170918.903557681068	86
0	5376	170992.196235722421	85
0	5389	171141.217442973707	86
0	5391	171283.838922149061	85
0	5404	171537.52669600085	86
0	5406	171715.545406480418	87
0	5412	172000.564076509936	88
0	5414	172017.798089063201	89
0	5424	172225.364963204701	90
0	5426	172300.943690061462	89
0	5435	172321.68087852741	90
0	5437	172330.974062402446	91
0	5439	172454.345480679094	90
0	5444	172488.56550878867	91
0	5450	172822.760218538237	90
0	5459	173136.82114016999	89
0	5464	173302.931509315004	90
0	5466	173374.832737176239	89
0	5471	173407.705351971375	90
0	5485	173975.672833921489	91
0	5491	174304.10369101548	92
0	5493	174345.250815504225	93
0	5503	174509.663429065168	92
0	5512	174540.467616327	91
0	5517	174558.618693063525	92
0	5519	174586.038379643002	93
0	5529	175041.594323746753	92
0	5538	175270.713340315083	93
0	5544	175459.572150714588	92
0	5549	175731.508746548116	91
0	5554	175800.723207940795	92
0	5560	175900.091024160919	93
0	5562	175910.494485426576	94
0	5568	176015.740631937873	93
0	5573	176052.083628054932	94
0	5579	176082.623546028053	95
0	5581	176085.218030205488	94
0	5586	176100.746765402355	95
0	5592	176405.74928588283	94
0	5597	176548.768193285769	95
0	5599	176558.58987430454	96
0	5605	176866.608341066658	95
0	5622	177110.637940826602	96
0	5624	177232.529967868567	97
0	5626	177233.305451045172	98
0	5628	177339.03780140717	97
0	5641	177506.768517187357	96
0	5658	177846.370361773789	95
0	5671	178019.304465949174	96
0	5673	178050.892412655027	97
0	5675	178090.698670456134	98
0	5681	178354.28391764921	97
0	5686	178370.042164482069	96
0	5707	178729.661039924741	95
0	5720	179016.528896147723	96
0	5722	179069.915359649742	97
0	5732	179366.335978552592	96
0	5737	179391.953613100715	97
0	5751	180006.762105748823	98
0	5757	180078.517356617868	97
0	5762	180304.854181526565	98
0	5768	180654.286646163583	97
0	5773	180658.709051355613	96
0	5782	180746.964961438839	97
0	5792	181021.247368462681	98
0	5798	181216.76932371795	99
0	5812	181837.212879222798	100
0	5818	182001.127776399148	99
0	5823	182025.901116421938	98
0	5828	182623.953524427255	99
0	5834	182765.921917315622	100
0	5836	183122.429853183796	101
0	5842	183536.458933584285	100
0	5851	183617.083212873459	99
0	5856	183672.305318999056	100
0	5858	183692.615792394763	101
0	5864	184401.864012396455	100
0	5869	184402.358131043506	99
0	5882	185073.186588480962	98
0	5895	185439.401730542579	99
0	5901	185730.557727395118	98
0	5906	185761.550264643682	99
0	5912	185947.163611963643	100
0	5918	186060.299644463571	101
0	5920	186127.074860400081	100
0	5929	186366.712792936281	101
0	5935	186442.476699955655	102
0	5937	186582.76758070153	101
0	5946	186708.51637412597	100
0	5951	186913.375152340651	99
0	5960	187279.195723466469	98
0	5969	187482.393188924189	99
0	5971	187696.336888551748	100
0	5981	187922.680700900169	101
0	5983	187963.832185263258	102
0	5993	188158.35674713415	101
0	6002	188240.442441373957	100
0	6011	188433.727947633886	101
0	6017	188563.119313215982	102
0	6019	188697.885853648677	103
0	6025	188818.319183906475	104
0	6031	188903.075519740174	105
0	6041	189003.686278788866	104
0	6054	189501.565190726425	105
0	6056	189684.928526028884	104
0	6061	189757.836098140599	103
0	6070	189941.528388701894	104
0	6072	190115.056079190686	105
0	6074	190228.149534731997	104
0	6083	190514.546436025323	103
0	6088	190515.253735851658	104
0	6094	190734.123847585956	105
0	6100	190861.54941848233	106
0	6102	190865.590000995549	107
0	6104	190924.113257694813	108
0	6110	191211.324224989399	109
0	6128	191596.738395677773	110
0	6130	191651.678335115643	111
0	6132	191702.136030374588	110
0	6137	191759.973379753424	109
0	6142	191766.631563449684	110
0	6144	191900.218240976269	111
0	6146	192011.813465244267	112
0	6152	192061.015650390513	113
0	6154	192346.479115265033	114
0	6160	192854.061639955491	115
0	6170	192954.903418093814	114
0	6179	193191.35889847482	115
0	6181	193259.23283299724	116
0	6183	193378.606867259862	115
0	6192	193630.38394034468	116
0	6198	193762.409652492106	117
0	6204	194533.925861127569	116
0	6209	194548.811787417122	117
0	6215	194652.260304945509	118
0	6217	194831.611140138032	117
0	6222	195028.845378656405	118
0	6228	195314.088144836415	119
0	6234	195442.32528640938	118
0	6243	195703.824370222809	119
0	6245	195869.249229699268	118
0	6254	195948.852963888199	119
0	6256	195966.254676757874	118
0	6261	196128.747564696591	119
0	6263	196236.969932697608	118
0	6268	196357.090717414644	119
0	6274	196452.275940785118	120
0	6288	196903.555859669938	119
0	6297	197115.430241134945	120
0	6299	197210.001319489004	119
0	6320	198088.840028650954	118
0	6329	198485.862807138385	117
0	6342	198691.256244338944	116
0	6347	198742.972371681155	115
0	6352	198943.056084421421	116
0	6354	199045.694540115545	117
0	6360	199554.272062682331	118
0	6370	199858.855390723774	119
0	6372	199971.912037104263	118
0	6381	200113.831560379387	117
0	6398	200369.743942700221	116
0	6403	200509.57066352674	117
0	6409	200658.213752217485	116
0	6414	200689.380317528292	117
0	6416	200702.315003357461	118
0	6422	200990.837374076141	117
0	6431	201305.018325763153	118
0	6437	201336.814642427982	117
0	6442	201386.784108663325	118
0	6448	201540.032296821909	119
0	6450	201560.473432811796	120
0	6456	201862.835138670994	119
0	6477	202199.24875506003	118
0	6482	202341.501574321212	117
0	6487	202451.700824474193	118
0	6493	202516.77556268968	119
0	6507	203059.16750075309	120
0	6513	203164.302538359932	121
0	6515	203239.02846662809	122
0	6525	203514.976646220805	121
0	6534	203626.814680702878	120
0	6539	203742.069011829668	121
0	6549	204029.968132493654	122
0	6551	204049.287732773688	123
0	6553	204087.275437028402	124
0	6555	204243.499529182805	123
0	6568	204592.176221414031	122
0	6573	204707.047917845717	123
0	6575	204708.68683199755	124
0	6577	204738.518380306555	123
0	6582	204863.184687970699	122
0	6595	205227.768268785047	123
0	6601	205497.337943993403	122