version 2
run Iteration-37-20200521-09:53:00-65420
attr configname Iteration
attr datetime 20200521-09:53:00
attr experiment Iteration
attr inifile omnetpp.ini
attr iterationvars "$i=4, $j=2, $0=15-(4+2)"
attr iterationvarsf i=4,j=2,15-(4+2)-
attr measurement "$i=4, $j=2, $0=15-(4+2)"
attr network Network
attr processid 65420
attr repetition 0
attr replication #0
attr resultdir results
attr runnumber 37
attr seedset 37
itervar i 4
itervar j 2
param **.resourcePool.amount 4
param **.resourcePool1.amount 2
param **.resourcePool2.amount 15-(4+2)
param **.source.interArrivalTime exponential(6min)
param **.delay.delay uniform(4min,28min)
param **.delay1.delay uniform(10min,28min)
param **.delay2.delay uniform(4min,16min)
param **.allocate.resourceModuleName "\"Network.resourcePool\""
param **.allocate1.resourceModuleName "\"Network.resourcePool1\""
param **.allocate2.resourceModuleName "\"Network.resourcePool2\""
param **.deallocate.resourceModuleName "\"Network.resourcePool\""
param **.deallocate1.resourceModuleName "\"Network.resourcePool1\""
param **.deallocate2.resourceModuleName "\"Network.resourcePool2\""
param **.router.randomGateIndex "uniform(0, 1) > 0.2 ? 0 : 1"

vector 0 Network.allocate queueLength:vector ETV
attr interpolationmode sample-hold
attr title "queue length, vector"
vector 1 Network.allocate1 queueLength:vector ETV
attr interpolationmode sample-hold
attr title "queue length, vector"
vector 2 Network.allocate2 queueLength:vector ETV
attr interpolationmode sample-hold
attr title "queue length, vector"
vector 3 Network.sinkStat lifeTime:vector ETV
attr interpolationmode none
attr title "lifetime of arrived jobs, vector"
attr unit s
vector 4 Network.sink lifeTime:vector ETV
attr interpolationmode none
attr title "lifetime of arrived jobs, vector"
attr unit s
0	0	0	0
0	45	2777.671671728594	1
0	51	3084.688939313755	2
0	58	3346.217525302932	1
0	62	3395.672345584451	2
0	68	3557.278007471975	1
0	72	3731.754836311956	2
0	74	3810.65130970583	3
0	81	3921.495764201693	2
0	85	3998.504388881534	3
0	87	4027.746844435595	2
0	100	4812.5186759029	1
0	104	4865.530744250752	2
0	106	4963.913817754018	3
0	108	4973.607634976075	2
0	112	4987.158559283428	1
0	116	5016.04485443317	2
0	123	5097.360941861504	3
0	125	5126.289627606091	2
0	133	5282.873907903694	1
0	137	5395.679616315477	0
0	141	5682.95105833671	1
0	147	5890.866157988128	0
0	156	6017.021121634864	1
0	163	6115.169746039622	0
0	285	9911.831707483654	1
0	291	9944.148946123713	2
0	293	9963.794290866884	1
0	302	10232.429986099783	2
0	309	10472.431836153153	1
0	313	10624.239870728542	0
0	317	11010.208311692168	1
0	328	11055.525281718724	0
0	428	15078.676234644314	1
0	430	15156.976156915949	0
0	434	15186.769309434244	1
0	441	15407.711816328525	2
0	443	15434.368067339761	3
0	458	15714.107478738649	4
0	464	15903.037100587031	3
0	468	15960.240387723233	2
0	472	15984.848263311611	1
0	480	16260.586847086075	0
0	484	16261.342058836156	1
0	486	16581.52013986596	0
0	518	17187.726033117073	1
0	520	17428.49210267689	2
0	522	17447.041683972265	1
0	526	17481.684889093357	0
0	657	21513.40208032486	1
0	664	21575.28681095506	2
0	666	21609.662323360533	3
0	668	21624.395891949567	2
0	676	21794.037866280665	3
0	683	21870.314987450871	2
0	687	21925.563459140741	1
0	691	21967.336473852537	0
0	701	22065.20505914831	1
0	711	22635.412019328297	0
0	777	24914.067763689952	1
0	779	25013.794950625174	0
0	927	29859.293715837696	1
0	933	30177.515224595157	0
0	937	30182.822025772403	1
0	939	30423.62615251135	2
0	941	30498.455928866354	1
0	945	30514.343027069647	2
0	947	30544.963239158456	3
0	949	30647.70426950049	4
0	961	30776.695552701877	3
0	965	30778.672412575802	4
0	967	30851.550898861251	3
0	975	31204.330239933518	2
0	979	31206.845812344908	1
0	983	31369.28228905562	2
0	989	31839.82013699796	1
0	993	31859.376188622983	2
0	1000	32043.221334027111	1
0	1004	32147.698609430454	0
0	1013	32284.022016424304	1
0	1015	32428.234124149575	2
0	1017	32430.568213025855	1
0	1025	32484.693254832712	0
0	1033	32919.145623961542	1
0	1035	33091.299289408799	2
0	1037	33092.457566570602	1
0	1041	33155.665544712901	0
0	1140	35840.878182590745	1
0	1142	36066.997461294682	0
0	1236	38904.18518591263	1
0	1243	39288.556383322159	2
0	1245	39315.928705546471	1
0	1249	39488.226436771233	0
0	1554	50069.93412168589	1
0	1556	50171.136670529884	0
0	1603	51090.415374725042	1
0	1610	51193.368518335664	2
0	1612	51211.190901067769	1
0	1621	51316.172742922035	0
0	1625	51434.725326771979	1
0	1635	51984.765855776163	2
0	1637	52176.034371490843	1
0	1641	52197.59834350207	2
0	1653	52389.29341623912	1
0	1657	52530.238778520552	0
0	1707	53965.889220657743	1
0	1709	53991.834153943577	2
0	1711	54009.821644982421	3
0	1717	54172.604484063141	2
0	1721	54216.144079532662	3
0	1733	54291.072542532559	2
0	1741	54709.125843174036	1
0	1745	54756.515766739784	0
0	1807	56414.086288755504	1
0	1813	56660.439317326564	0
0	1817	56755.495051687694	1
0	1823	57005.125697025289	0
0	1939	60751.285346197601	1
0	1946	60971.201266589562	0
0	1955	60981.518731388063	1
0	1957	61053.337181898027	2
0	1959	61110.378485677281	3
0	1961	61174.670145340891	2
0	1965	61263.455292523278	1
0	1969	61397.218456343613	2
0	1975	61724.64861068702	1
0	1979	61770.706424803169	0
0	1987	61998.039100204784	1
0	1989	62014.896710270398	2
0	1996	62250.231702855414	3
0	1998	62332.55903260688	2
0	2007	62465.608988568814	1
0	2015	62840.613489931586	0
0	2566	81479.291711531025	1
0	2573	81534.701712451276	2
0	2580	81813.591079964639	1
0	2584	81972.372716707204	0
0	2660	84638.607697394562	1
0	2662	84653.382570684183	0
0	2780	88564.123669275352	1
0	2792	88900.665285649157	0
0	2800	88906.68952352326	1
0	2802	88969.01539149092	2
0	2804	89050.690245707136	3
0	2810	89148.992765912241	2
0	2814	89195.10012269029	1
0	2818	89282.133140967998	0
0	2953	94414.833963316615	1
0	2960	94482.834824550903	2
0	2962	94615.179471560006	1
0	2975	95123.820111433103	0
0	3120	100315.635705406947	1
0	3126	100513.234476684491	2
0	3133	100582.641016158802	1
0	3142	101131.15644938042	0
0	3146	101178.38966009271	1
0	3148	101211.139469956906	0
0	3476	111877.571823884655	1
0	3482	111923.907767796688	2
0	3484	111939.582119082239	3
0	3495	112273.355940346095	2
0	3499	112410.141712135603	3
0	3501	112474.549107227882	2
0	3505	112523.892004573322	3
0	3507	112537.738801708626	4
0	3509	112575.458255617296	3
0	3517	112812.59330235087	2
0	3521	112835.356606833882	3
0	3523	113090.432256568602	2
0	3532	113209.994424161102	3
0	3534	113320.532344717953	2
0	3543	113562.682576200342	1
0	3551	113878.272349302146	0
0	3561	114193.170676151052	1
0	3567	114216.882830181017	2
0	3569	114332.287015606138	1
0	3578	114457.087734324981	0
0	3711	118612.659187661665	1
0	3713	118614.702284818764	0
0	3736	119315.045668642188	1
0	3738	119443.954710927442	0
0	3752	119651.335466951299	1
0	3754	119706.507078162199	0
0	3758	119713.753013885047	1
0	3760	119741.056588029738	0
0	3800	120631.429713317944	1
0	3806	120731.949657116128	2
0	3808	120886.369976057377	1
0	3812	120946.293891256924	0
0	3831	121144.408397657528	1
0	3833	121533.175961148987	2
0	3835	121595.373731049292	1
0	3848	121887.824786578977	0
0	3873	122565.17668222357	1
0	3875	122688.858337605886	0
0	3879	122823.467916132498	1
0	3890	122970.207526425848	2
0	3892	123031.064130718402	1
0	3896	123183.355437334228	2
0	3898	123258.102915878564	1
0	3902	123392.638220203781	0
0	3954	125007.58093876558	1
0	3965	125245.566080011299	2
0	3967	125336.460770708464	1
0	3975	125408.744276434163	0
0	4080	128469.728565440581	1
0	4082	128733.067308522756	0
0	4346	138188.948282063519	1
0	4348	138300.716207616609	0
0	4431	141698.000730119727	1
0	4447	142004.087461512193	2
0	4453	142081.288548988426	3
0	4455	142105.177325541548	2
0	4464	142490.369437488875	1
0	4477	142889.956882751568	0
0	4481	143019.231266976739	1
0	4483	143242.103927978805	0
0	4487	143252.83359542949	1
0	4489	143288.129889788501	0
0	4493	143320.391252069362	1
0	4499	143460.003796375378	0
0	4548	144517.42465081198	1
0	4550	144536.406230578967	2
0	4557	144749.667381762548	1
0	4561	144760.135989306812	2
0	4563	144907.286295484029	3
0	4565	144962.088287333314	2
0	4573	145161.075428388444	3
0	4579	145562.838302123484	4
0	4581	145574.626924475054	5
0	4583	145831.449927629339	4
0	4592	145938.651536075534	3
0	4596	146059.139721870568	4
0	4603	146279.9031297652	3
0	4607	146293.99128203003	2
0	4611	146322.728752772365	3
0	4613	146480.670122224897	4
0	4615	146598.463752279346	3
0	4619	146726.989931768759	2
0	4627	146884.509490921657	3
0	4638	147412.209546124698	2
0	4642	147486.810963214931	3
0	4644	147723.570245420939	4
0	4651	147861.497335822689	3
0	4659	148115.933716944355	4
0	4661	148124.663255632258	5
0	4668	148223.101233958288	4
0	4672	148237.97133293963	3
0	4676	148266.684060493194	4
0	4678	148447.54929040635	5
0	4689	148838.561707815291	4
0	4698	148980.32274404298	3
0	4710	149099.407114057823	2
0	4714	149262.015149133482	3
0	4716	149431.186238492831	4
0	4718	149545.139243016308	3
0	4731	150369.363409249248	2
0	4735	150378.059150756881	3
0	4742	150462.978509345459	2
0	4746	150483.530903912171	1
0	4750	150495.388724254733	0
0	4754	150542.255597756083	1
0	4756	150628.378798280646	2
0	4758	150910.726566851272	3
0	4760	150945.375060371145	2
0	4764	151038.662616291451	1
0	4776	151184.00024791277	0
0	4785	151487.832562485093	1
0	4787	151605.459304904701	0
0	4802	151924.421787177611	1
0	4812	152115.746203149026	0
0	4848	153058.141589450291	1
0	4854	153067.642472972467	0
0	4870	153734.392342501985	1
0	4877	153848.337724189112	0
0	4886	154152.54743514962	1
0	4888	154249.140642242048	0
0	5302	168811.808821852881	1
0	5304	168938.508676331942	0
0	5308	169095.895868997039	1
0	5310	169292.204280052786	0
0	5400	172401.928519221859	1
0	5402	172565.439912394262	0
0	5406	172726.990283260761	1
0	5408	172805.608916675333	0
0	5630	180300.819075776887	1
0	5636	180545.434604059377	0
0	5667	181192.119387659751	1
0	5674	181366.832581175457	2
0	5680	181542.832611383296	1
0	5684	181784.513197276214	0
0	5698	182114.167510700052	1
0	5705	182191.106226698853	0
0	6003	194145.623227309794	1
0	6010	194261.732069859822	0
0	6060	195558.547248271018	1
0	6062	195789.061077033064	0
0	6072	195877.952733894749	1
0	6079	195963.163664201317	2
0	6081	196082.2502927232	3
0	6083	196111.465087178746	2
0	6100	196475.468312707624	1
0	6104	196640.463898498216	0
0	6174	199177.25667223062	1
0	6176	199181.859171118193	0
0	6375	206257.933670002674	1
0	6377	206294.775393590073	0
0	6381	206324.228046512643	1
0	6387	206583.149927864584	0
0	6408	207211.467272536287	1
0	6410	207361.079916231076	0
0	6573	213308.044727771767	1
0	6575	213308.298160670344	0
0	6636	214987.316290462173	1
0	6638	215098.173893483627	0
0	6647	215600.615401644746	1
0	6653	215634.044390187384	2
0	6659	215921.464183664271	1
0	6663	216219.855247246463	0
0	6756	218974.359034341125	1
0	6767	219176.310576777423	2
0	6774	219353.267017034278	1
0	6786	219801.49871998979	2
0	6788	219831.376712573156	1
0	6792	219941.609907645139	0
0	6801	220177.538088503905	1
0	6803	220180.548907814278	2
0	6805	220180.638200750938	1
0	6809	220186.870559471463	2
0	6811	220337.926718700746	3
0	6813	220434.587325963806	4
0	6815	220518.843524073646	3
0	6819	220520.314414010024	2
0	6823	220589.926543467541	3
0	6825	220616.413119222376	2
0	6829	220655.375711469343	1
0	6847	220865.744804022298	0
0	6851	220920.256897349141	1
0	6853	220965.405259099315	2
0	6855	220972.523584669805	3
0	6857	221056.551983706978	4
0	6859	221067.501115999285	5
0	6865	221380.68003087548	4
0	6869	221441.416958624877	5
0	6875	221607.211932157562	4
0	6879	221612.949186808493	5
0	6881	221626.640843803556	6
0	6888	221713.152209513461	5
0	6892	221754.914898610106	4
0	6901	221892.858510754053	5
0	6903	222022.504231754098	4
0	6907	222121.524409935419	5
0	6909	222243.58594957956	6
0	6920	222385.134758512828	5
0	6924	222427.625385366063	6
0	6934	223119.969382279193	5
0	6943	223195.592194748507	4
0	6952	223405.974769870322	5
0	6954	223416.141566856197	4
0	6958	223488.120258652076	5
0	6960	223631.761981808643	6
0	6962	223686.747326559547	7
0	6964	223885.896886784138	8
0	6966	223901.964108656499	7
0	6979	224107.782179024282	8
0	6985	224243.772824921286	7
0	6989	224391.958334503481	8
0	6995	224573.663384817163	9
0	6997	224692.284158056966	8
0	7006	224837.123263729201	7
0	7010	225120.396982128494	8
0	7012	225203.489689556347	7
0	7020	225263.934279318306	6
0	7024	225367.752028462753	7
0	7031	225637.579672627723	6
0	7035	225733.468235344496	7
0	7037	225819.438579540107	6
0	7045	225902.50566429702	5
0	7049	225964.259746340544	6
0	7051	225989.326848460726	5
0	7060	226088.952324438247	4
0	7064	226170.255647962378	3
0	7068	226332.648011705271	2
0	7076	226523.884614211904	1
0	7080	227011.405216755758	2
0	7087	227100.005894309002	3
0	7089	227148.58699668049	2
0	7098	227184.562858969545	1
0	7102	227213.584745431996	2
0	7104	227323.542534581187	3
0	7106	227727.051066485842	4
0	7108	227747.054445158097	3
0	7116	227902.674334896194	2
0	7120	228058.438667424595	1
0	7129	228090.734543059003	2
0	7131	228097.10459021047	1
0	7144	228391.774320165964	0
0	7190	229267.972796186886	1
0	7192	229282.979141910957	0
0	7196	229527.657139454482	1
0	7198	229560.640501145632	2
0	7204	229779.982713242973	3
0	7206	229804.688304058741	2
0	7219	230100.647990530898	3
0	7221	230133.947207967259	4
0	7223	230138.909749869885	5
0	7225	230238.232425553189	4
0	7233	230242.204581333792	3
0	7242	230665.398183212756	2
0	7246	230807.912945553194	1
0	7255	230950.908355125367	0
0	7341	233434.925277886797	1
0	7347	233745.801868300569	0
0	7440	236817.663559067972	1
0	7442	236843.085422326036	2
0	7453	237027.855421893621	1
0	7466	237265.159458195696	2
0	7468	237345.001439286235	1
0	7472	237352.591797136233	0
0	7476	237371.92874248834	1
0	7478	237508.141200726905	2
0	7480	237527.300734289313	1
0	7484	237548.199833241293	2
0	7490	237717.818229054767	1
0	7499	238046.227738127858	2
0	7501	238094.610788554276	1
0	7509	238141.905031850473	2
0	7516	238263.223440183166	1
0	7520	238358.895216752448	2
0	7522	238708.857430913017	1
0	7526	238823.796889095582	2
0	7528	238837.556868772516	3
0	7530	238958.512781210706	2
0	7538	239254.477050513491	1
0	7542	239260.33304023775	0
0	7572	239769.317723599533	1
0	7578	240100.075608302316	0
0	7686	243133.144932103157	1
0	7688	243283.524490919321	0
0	7692	243432.376133066461	1
0	7694	243432.550714014548	0
0	7728	244168.391514833276	1
0	7730	244359.667552698761	0
0	7761	245367.08290622557	1
0	7763	245532.415332469156	0
0	7794	246405.963702981718	1
0	7805	246628.825147182775	2
0	7807	246693.812487744234	3
0	7809	246861.731028139368	4
0	7811	247028.043486337176	3
0	7815	247187.185067387814	2
0	7828	247604.93044516113	1
0	7832	247635.956196787352	0
0	7836	247653.650070562817	1
0	7838	247847.31044058781	0
0	8115	257476.610005439099	1
0	8117	257524.384347538622	2
0	8119	257712.497876100214	3
0	8125	257905.884584419523	2
0	8134	258136.709574235243	3
0	8136	258280.296751327552	2
0	8140	258360.672989864813	1
0	8148	258575.932711806068	0
0	8218	259981.095110095391	1
0	8220	260009.043821442951	2
0	8222	260092.11006407589	1
0	8226	260101.146461134261	0
0	8294	262264.399085924608	1
0	8296	262359.349000313684	2
0	8302	262668.182034002275	3
0	8304	262707.246646700182	4
0	8306	262741.745789953154	5
0	8308	262759.528108790737	4
0	8312	262779.765832123923	3
0	8321	262826.417698267569	2
0	8325	262843.42159429535	3
0	8327	263064.185738658595	4
0	8333	263255.043841045072	3
0	8337	263396.181628940615	2
0	8346	263445.206751411654	3
0	8352	263709.450306219625	2
0	8356	263713.026372587203	3
0	8358	263903.833718441647	2
0	8366	264151.330295495909	1
0	8375	264717.156296599379	0
0	8385	264942.972857998558	1
0	8392	265068.720523377525	0
0	8452	266979.748755394543	1
0	8454	266999.848939055701	0
0	8500	268464.32898068549	1
0	8502	268520.965261152459	2
0	8504	268649.08314600591	3
0	8506	268657.109702642726	2
0	8515	268830.999419038397	1
0	8524	269014.807463939977	2
0	8530	269203.429059815806	1
0	8534	269288.630433125642	2
0	8536	269341.816039828685	1
0	8540	269447.170920143436	0
0	8560	270130.13039616256	1
0	8562	270214.035093720902	2
0	8569	270400.739992966977	1
0	8582	270603.155316444646	0
0	8630	272111.369482796235	1
0	8632	272290.354441401515	0
0	8703	274209.517789451263	1
0	8714	274591.837451414918	0
0	8718	274598.138359494167	1
0	8720	274626.841669052407	2
0	8722	274641.7715672061	1
0	8730	275048.000545854475	0
0	8734	275105.638606577105	1
0	8736	275355.877629512703	0
1	0	0	0
1	29	2440.07922854849	1
1	31	2546.915287591093	0
1	40	2607.800281550501	1
1	53	3288.135304276188	0
1	60	3346.217525302932	1
1	70	3557.278007471975	2
1	76	3827.051407137462	1
1	83	3921.495764201693	2
1	89	4027.746844435595	3
1	95	4367.103259034743	2
1	102	4812.5186759029	3
1	110	4973.607634976075	4
1	114	4987.158559283428	5
1	118	5070.67863524104	4
1	127	5126.289627606091	5
1	135	5282.873907903694	6
1	139	5395.679616315477	7
1	149	5890.866157988128	8
1	151	5970.706239298274	7
1	158	6064.581372711384	6
1	165	6115.169746039622	7
1	168	6390.350471692645	8
1	171	6450.904922335909	9
1	177	6763.958678061431	8
1	190	6908.276680426714	9
1	192	7169.934762205505	8
1	201	7227.698755769246	9
1	208	7619.984572530578	10
1	217	7813.236572697335	9
1	226	7918.868520302954	10
1	228	7991.983462378671	9
1	237	8199.439793836125	10
1	243	8301.743388615127	11
1	252	8595.875663154116	10
1	265	9254.772324249629	11
1	267	9283.75801318469	10
1	280	9829.296364169357	11
1	295	9963.794290866884	12
1	297	10118.971407844043	11
1	304	10385.953881332227	10
1	311	10472.431836153153	11
1	315	10624.239870728542	12
1	319	11026.585371244988	11
1	330	11055.525281718724	12
1	337	11236.02918048351	13
1	340	11503.910472389492	14
1	343	11548.60288879532	15
1	350	11772.671200661712	16
1	352	11952.830249231598	15
1	357	12041.169219195419	14
1	377	12814.355012560914	15
1	382	13305.421431736597	14
1	387	13376.958909521169	13
1	393	13490.03564669553	14
1	410	14493.966640030138	15
1	412	14532.960938999719	14
1	417	14599.001803446138	13
1	432	15156.976156915949	14
1	436	15385.109201503495	13
1	453	15578.56955951295	12
1	466	15903.037100587031	13
1	470	15960.240387723233	14
1	474	15984.848263311611	15
1	482	16260.586847086075	16
1	488	16581.52013986596	17
1	490	16687.252236923493	16
1	496	16690.830383423196	17
1	499	16698.513948266032	18
1	502	16841.832899566731	19
1	507	17032.600333123977	18
1	524	17447.041683972265	19
1	528	17481.684889093357	20
1	539	17703.487487336485	21
1	541	17707.632563190113	20
1	546	17715.782480698369	19
1	555	17897.68762315848	20
1	561	17999.870082408505	21
1	571	18264.048420249399	22
1	578	18596.538445583363	23
1	580	18843.10897143773	22
1	589	19065.839918349647	23
1	592	19107.661514779542	24
1	594	19219.95307237054	23
1	610	19849.839681097231	24
1	617	19995.983512910738	25
1	619	20208.814220244356	24
1	627	20291.693341025661	23
1	636	20537.88814996422	24
1	652	21167.920394039073	23
1	659	21572.216267466124	22
1	670	21624.395891949567	23
1	678	21862.98342221632	22
1	685	21870.314987450871	23
1	689	21925.563459140741	24
1	693	21967.336473852537	25
1	696	21982.542887771824	26
1	713	22635.412019328297	27
1	716	22652.921317756317	28
1	722	22836.59248523929	29
1	724	22886.137492928946	28
1	729	22909.221795910548	27
1	735	23266.296728141639	28
1	746	23749.808839701036	29
1	748	23911.088108170356	28
1	757	24262.902954579414	29
1	766	24483.99833223998	28
1	781	25013.794950625174	29
1	783	25104.377399433697	28
1	789	25187.724422681919	29
1	792	25292.958095157498	30
1	798	25314.254972330804	29
1	808	25593.418673431747	30
1	817	25961.905769995923	29
1	823	26218.299994030153	30
1	826	26231.305125032289	31
1	828	26267.188276762436	30
1	848	27460.660084908977	31
1	850	27547.965864867265	30
1	855	27577.007114516149	29
1	864	28016.183343997492	30
1	874	28327.562618546481	29
1	882	28710.787147247742	28
1	892	28916.328954156365	29
1	900	29426.214040025647	28
1	905	29454.898823576341	27
1	911	29456.559359091743	28
1	935	30177.515224595157	29
1	943	30498.455928866354	30
1	951	30683.449992334763	29
1	956	30759.966951582159	28
1	963	30776.695552701877	29
1	969	30851.550898861251	30
1	977	31204.330239933518	31
1	981	31206.845812344908	32
1	991	31839.82013699796	33
1	995	31948.671568708787	32
1	1002	32043.221334027111	33
1	1006	32147.698609430454	34
1	1008	32173.772644830446	33
1	1019	32430.568213025855	34
1	1027	32484.693254832712	35
1	1039	33092.457566570602	36
1	1043	33155.665544712901	37
1	1045	33215.720252209853	36
1	1051	33237.151885409442	37
1	1053	33251.798740627537	36
1	1063	33587.272021370756	37
1	1070	33943.390308629833	38
1	1072	33960.3994408078	37
1	1077	34049.325580114792	36
1	1083	34430.006892750025	37
1	1099	34825.369452500294	36
1	1108	35128.082154533836	37
1	1117	35261.336536083664	36
1	1123	35522.159641074218	37
1	1128	35732.010706431742	36
1	1144	36066.997461294682	37
1	1150	36514.466052970211	36
1	1155	36609.728720543484	35
1	1161	36816.982147308871	36
1	1175	36960.469330897481	37
1	1178	37264.481128576445	38
1	1181	37502.430890229041	39
1	1183	37586.156573353629	38
1	1198	37962.811729928057	37
1	1204	38119.108069405327	38
1	1207	38133.133027735095	39
1	1215	38301.583228253122	38
1	1231	38873.182564314033	37
1	1238	39234.186261251863	36
1	1247	39315.928705546471	37
1	1251	39488.226436771233	38
1	1258	39556.156846745233	39
1	1265	39749.830105896402	40
1	1274	39880.584703780491	41
1	1276	40208.746979313266	40
1	1281	40332.491462520833	39
1	1287	40607.751649746052	40
1	1290	40769.635207231554	41
1	1297	40898.773006610746	42
1	1309	41279.468301322606	41
1	1317	41539.62901829886	40
1	1323	41546.764080103772	41
1	1333	41910.115301351615	42
1	1346	42172.559852324214	43
1	1348	42285.964596012902	42
1	1354	42369.686886835335	43
1	1367	42729.261968918501	44
1	1369	42933.627065263267	43
1	1374	43041.355271723416	42
1	1380	43289.895411405515	43
1	1383	43410.998492402848	44
1	1389	43699.388375778046	43
1	1395	43953.797860322561	44
1	1405	44236.068091235633	43
1	1420	44836.226517299485	42
1	1436	45603.367389267566	43
1	1438	45646.431838108522	42
1	1443	45827.28149753208	41
1	1453	46146.892613416378	42
1	1456	46265.469189183482	43
1	1458	46368.445580594537	42
1	1467	46603.708365467887	41
1	1473	46772.931439134787	42
1	1483	47594.224234467668	41
1	1491	48151.7702634647	40
1	1504	48606.983463421014	41
1	1511	48653.087625829667	42
1	1513	48849.96773752528	41
1	1518	48882.654780961869	40
1	1540	49636.086661971521	41
1	1549	49843.026326338125	40
1	1558	50171.136670529884	41
1	1561	50185.338282600858	42
1	1564	50200.445628520811	43
1	1567	50215.825612470278	44
1	1572	50408.741435447286	43
1	1578	50423.093215346378	44
1	1598	50960.90240035438	45
1	1605	51133.456785941075	44
1	1614	51211.190901067769	45
1	1616	51313.689690215809	44
1	1623	51316.172742922035	45
1	1639	52176.034371490843	46
1	1643	52229.263407915409	45
1	1648	52370.989945160521	44
1	1655	52389.29341623912	45
1	1659	52530.238778520552	46
1	1662	52771.452716573872	47
1	1665	52780.166750033116	48
1	1668	52792.431338812477	49
1	1671	52884.200396690694	50
1	1687	53266.117091757755	49
1	1692	53404.566308969928	48
1	1719	54172.604484063141	49
1	1723	54232.954181927766	48
1	1728	54267.516391717194	47
1	1735	54291.072542532559	48
1	1743	54709.125843174036	49
1	1747	54756.515766739784	50
1	1750	55027.518790564253	51
1	1753	55060.26053430879	52
1	1763	55354.981635686509	53
1	1765	55519.824659937571	52
1	1771	55586.509735933717	53
1	1776	55706.283046437724	52
1	1792	56118.46665548771	53
1	1797	56317.466426233126	52
1	1802	56345.405121400531	51
1	1815	56660.439317326564	52
1	1825	57005.125697025289	53
1	1827	57052.813482686456	52
1	1837	57123.151158076244	53
1	1840	57445.639623421886	54
1	1846	57559.006842251438	55
1	1852	57956.047775663732	54
1	1861	58272.306891449918	55
1	1863	58362.328052820217	54
1	1883	59095.012447914614	55
1	1889	59142.896098490917	56
1	1891	59218.020016114738	55
1	1896	59318.500691477506	54
1	1906	59659.835528293321	55
1	1912	59713.594550192945	56
1	1918	59852.25942278425	55
1	1934	60381.548340578662	56
1	1941	60866.444257285743	55
1	1948	60971.201266589562	56
1	1950	60979.288907741707	55
1	1963	61174.670145340891	56
1	1967	61263.455292523278	57
1	1977	61724.64861068702	58
1	1981	61770.706424803169	59
1	1991	62175.303340630903	58
1	2000	62332.55903260688	59
1	2002	62426.626091563654	58
1	2009	62465.608988568814	59
1	2017	62840.613489931586	60
1	2020	62908.464896247162	61
1	2026	63129.891033413808	62
1	2029	63163.41528599772	63
1	2032	63196.395869700375	64
1	2034	63216.542628585872	63
1	2044	63305.177161128011	64
1	2046	63437.513416039123	63
1	2062	63961.04269272792	62
1	2067	64104.612897944002	61
1	2073	64130.325049418576	62
1	2083	64747.309546770107	61
1	2088	65244.292112870439	60
1	2107	66124.267589843198	59
1	2112	66186.031463250097	58
1	2126	66609.133392415606	59
1	2131	66742.2045728679	58
1	2140	66773.248349890189	59
1	2146	67283.032250257874	60
1	2148	67283.328018301677	59
1	2161	67485.409015279373	60
1	2166	67545.772637885362	59
1	2172	67698.986963423453	60
1	2175	67857.996159737251	61
1	2195	68395.823930517572	62
1	2200	68666.179770614531	61
1	2206	69003.618992540559	62
1	2208	69011.94808529906	61
1	2214	69131.902266921654	62
1	2230	69621.85352840605	61
1	2236	69655.081906717128	62
1	2239	69712.930374779972	63
1	2242	69760.920024495437	64
1	2251	70261.696251586378	63
1	2260	70396.981132362496	64
1	2272	71249.37350577819	63
1	2277	71269.627205815465	62
1	2283	71313.735005035997	63
1	2289	71587.410374946526	64
1	2300	71780.310676763212	65
1	2303	71783.898504340312	66
1	2306	71946.526578944414	67
1	2308	72087.974658582658	66
1	2313	72382.488968839448	65
1	2325	72978.67993829988	64
1	2334	73185.795575307261	63
1	2346	73726.363667279781	62
1	2356	73882.012136932714	63
1	2368	74045.689467497682	64
1	2371	74427.75148493198	65
1	2378	74435.462406746318	66
1	2381	74489.949395923272	67
1	2383	74677.684022711169	66
1	2391	74846.326772339941	65
1	2413	75773.902440631341	64
1	2419	75872.460342966283	65
1	2426	76174.036000466555	66
1	2428	76253.30130569853	65
1	2434	76269.700527787011	66
1	2440	76568.508068357318	67
1	2446	77013.934507939544	66
1	2452	77334.680283624483	67
1	2460	77684.146593708844	66
1	2466	77695.775121510695	67
1	2479	78155.141281468373	66
1	2489	78760.228897588819	67
1	2492	78862.865066682568	68
1	2494	79010.517724242361	67
1	2499	79043.732546550732	66
1	2522	79935.476203162788	67
1	2524	80005.949412082832	66
1	2529	80012.753082730176	65
1	2535	80013.791621359916	66
1	2548	80642.087998795778	67
1	2555	81168.039202451452	68
1	2568	81481.822817905175	67
1	2575	81679.700173699807	66
1	2582	81813.591079964639	67
1	2586	81972.372716707204	68
1	2589	82271.318789898876	69
1	2600	82440.365008923697	70
1	2605	82720.037953761916	69
1	2613	82972.785376899245	68
1	2623	83196.893340875421	69
1	2626	83343.510034560563	70
1	2629	83484.200518139026	71
1	2639	83764.680961544725	72
1	2641	83801.311525211039	71
1	2646	83963.046869488012	70
1	2664	84653.382570684183	71
1	2667	84664.90577028265	72
1	2673	84835.911232644993	71
1	2686	85088.810851568414	72
1	2689	85184.562923818611	73
1	2692	85357.421247638989	74
1	2698	85448.035413661551	73
1	2706	85732.756461456719	72
1	2712	85902.873429863246	73
1	2718	86406.138563679832	72
1	2723	86453.084470929157	71
1	2733	86673.307266288858	72
1	2746	87427.234238295185	71
1	2752	87748.892017336855	72
1	2764	88115.028930913236	71
1	2769	88136.338385746183	70
1	2782	88816.487725453751	69
1	2787	88824.353172976103	68
1	2794	88900.665285649157	69
1	2812	89148.992765912241	70
1	2816	89195.10012269029	71
1	2820	89282.133140967998	72
1	2826	89441.665148829621	71
1	2832	89516.473118501163	72
1	2839	89645.698089897722	73
1	2845	90197.508622177245	72
1	2850	90253.044164238077	71
1	2856	90385.830688508067	72
1	2866	90735.106490807063	73
1	2879	91327.789147518415	74
1	2884	91505.990343356805	73
1	2893	91879.444344484938	74
1	2895	91894.705336533066	73
1	2905	92195.022922355966	74
1	2912	92446.699811739114	75
1	2917	92819.394726932349	74
1	2923	93140.220817349135	75
1	2930	93509.635702955113	76
1	2932	93545.911311210644	75
1	2955	94449.14643631533	74
1	2964	94615.179471560006	75
1	2970	95104.306517673236	74
1	2977	95123.820111433103	75
1	2980	95335.524174533968	76
1	2987	95462.343523356523	77
1	2990	95486.376595016112	78
1	2992	95542.692303100901	77
1	3004	95973.826699565676	76
1	3010	96023.811709636881	77
1	3013	96029.540772013289	78
1	3019	96462.724829278047	79
1	3021	96579.946268920156	78
1	3033	96984.881271181208	77
1	3039	97093.055704416109	78
1	3052	98133.745566143024	77
1	3057	98144.828076839027	76
1	3063	98479.206247808574	77
1	3073	98971.926357216713	76
1	3089	99331.914622566163	77
1	3091	99401.912732806358	76
1	3102	99995.508720717904	75
1	3108	100077.827352378422	76
1	3128	100519.823260737884	75
1	3135	100582.641016158802	76
1	3137	101021.193600726825	75
1	3144	101131.15644938042	76
1	3150	101211.139469956906	77
1	3153	101314.40109080038	78
1	3164	101492.993892906161	79
1	3169	101787.258933933753	78
1	3182	102109.97219259624	79
1	3187	102450.414695927453	78
1	3193	102537.353280174635	79
1	3199	103073.350410467598	80
1	3208	103373.062982579273	79
1	3213	103451.101603295955	78
1	3219	103526.061223990978	79
1	3225	103928.711748688492	80
1	3235	104164.80803152119	81
1	3237	104241.101680400151	80
1	3243	104282.762015662749	81
1	3253	104401.376084682793	82
1	3256	104411.749590976416	83
1	3258	104545.742452779365	82
1	3271	104917.598972699716	83
1	3277	105199.327437981543	82
1	3288	105547.470456643331	81
1	3294	105882.250257306295	82
1	3297	106031.124108354307	83
1	3313	106582.949323162016	82
1	3319	106587.915767201073	83
1	3321	106669.813782397959	82
1	3330	106807.481427980606	83
1	3333	106858.037912605896	84
1	3346	107076.601813997997	85
1	3356	107543.803004428037	86
1	3358	108124.740489527885	85
1	3364	108129.807688760261	86
1	3366	108161.039579959166	85
1	3372	108191.367584062464	86
1	3385	108991.168552453612	87
1	3391	109098.320861320522	86
1	3406	109242.657676966788	87
1	3408	109399.177967936103	86
1	3414	109506.27529631205	87
1	3425	110142.276973448643	88
1	3428	110284.858968456405	89
1	3430	110381.108317069289	88
1	3438	110495.116261646454	87
1	3460	111184.6388538755	86
1	3466	111249.160030607241	87
1	3471	111861.227884732489	86