version 2
run Iteration-48-20200521-09:53:49-66864
attr configname Iteration
attr datetime 20200521-09:53:49
attr experiment Iteration
attr inifile omnetpp.ini
attr iterationvars "$i=5, $j=3, $0=15-(5+3)"
attr iterationvarsf i=5,j=3,15-(5+3)-
attr measurement "$i=5, $j=3, $0=15-(5+3)"
attr network Network
attr processid 66864
attr repetition 0
attr replication #0
attr resultdir results
attr runnumber 48
attr seedset 48
itervar i 5
itervar j 3
param **.resourcePool.amount 5
param **.resourcePool1.amount 3
param **.resourcePool2.amount 15-(5+3)
param **.source.interArrivalTime exponential(6min)
param **.delay.delay uniform(4min,28min)
param **.delay1.delay uniform(10min,28min)
param **.delay2.delay uniform(4min,16min)
param **.allocate.resourceModuleName "\"Network.resourcePool\""
param **.allocate1.resourceModuleName "\"Network.resourcePool1\""
param **.allocate2.resourceModuleName "\"Network.resourcePool2\""
param **.deallocate.resourceModuleName "\"Network.resourcePool\""
param **.deallocate1.resourceModuleName "\"Network.resourcePool1\""
param **.deallocate2.resourceModuleName "\"Network.resourcePool2\""
param **.router.randomGateIndex "uniform(0, 1) > 0.2 ? 0 : 1"

vector 0 Network.allocate queueLength:vector ETV
attr interpolationmode sample-hold
attr title "queue length, vector"
vector 1 Network.allocate1 queueLength:vector ETV
attr interpolationmode sample-hold
attr title "queue length, vector"
vector 2 Network.allocate2 queueLength:vector ETV
attr interpolationmode sample-hold
attr title "queue length, vector"
vector 3 Network.sinkStat lifeTime:vector ETV
attr interpolationmode none
attr title "lifetime of arrived jobs, vector"
attr unit s
vector 4 Network.sink lifeTime:vector ETV
attr interpolationmode none
attr title "lifetime of arrived jobs, vector"
attr unit s
0	0	0	0
0	68	2730.473241275845	1
0	70	2866.256840949672	0
0	79	3053.866386718959	1
0	85	3232.709941795982	0
0	90	3271.997643225514	1
0	96	3439.365310717193	0
0	100	3461.235411915807	1
0	102	3742.173938198901	0
0	623	17400.302011094976	1
0	629	17510.42111558628	2
0	631	17546.917861313942	1
0	636	17639.573988907978	0
0	723	19545.689627390453	1
0	725	19639.408094985228	2
0	727	19744.099907552693	1
0	754	20221.800045275129	0
0	898	23381.609974491236	1
0	919	23947.017892933034	2
0	921	23965.794821509229	1
0	925	23979.675747933286	0
0	1005	25617.965899170562	1
0	1007	25661.417689436033	0
0	1015	26110.657005874735	1
0	1017	26128.460696679768	0
0	1026	26167.01294206925	1
0	1028	26409.0523900962	2
0	1044	26694.964022681137	1
0	1048	26696.123061781046	0
0	1158	29260.609452696433	1
0	1160	29507.712325344724	2
0	1166	29629.064883276012	1
0	1174	29728.031829535756	0
0	1278	31829.29679472013	1
0	1280	31971.753103508394	2
0	1282	32074.739286045094	1
0	1294	32249.489308190284	2
0	1301	32278.866258363612	1
0	1305	32318.948193888386	2
0	1307	32389.025768063562	1
0	1311	32461.875137194062	0
0	1639	40775.665340950225	1
0	1641	40959.809199028347	0
0	1645	41063.406992404399	1
0	1652	41283.145684708858	0
0	1670	41591.428456072126	1
0	1672	41603.776460398937	0
0	1686	41862.387652200599	1
0	1688	41890.2667983725	0
0	1748	43289.381847405672	1
0	1750	43381.753520309429	0
0	1773	43556.060487599346	1
0	1775	43682.32692985974	0
0	1800	44078.682604844185	1
0	1802	44096.753622528124	0
0	1946	47619.900802690929	1
0	1948	47840.767122672991	0
0	2180	54021.260285818191	1
0	2182	54080.986525552998	0
0	2186	54082.821364701048	1
0	2188	54223.151362466434	0
0	2497	61211.611755115555	1
0	2499	61244.513208755586	0
0	2789	68912.888460273143	1
0	2791	68978.648200690073	2
0	2793	69053.456233033406	1
0	2805	69107.9743778559	0
0	2833	69590.297900481518	1
0	2835	69639.489796445235	0
0	3452	83714.231524104676	1
0	3458	83950.480590259167	0
0	3509	84927.920836715009	1
0	3511	84977.595487796243	0
0	3709	89799.827493381711	1
0	3711	89808.782674370942	0
0	3715	89903.060396769241	1
0	3722	90058.38617207921	2
0	3724	90127.380435059752	1
0	3737	90340.946953584996	0
0	3847	92749.65558341058	1
0	3853	92900.24618622453	0
0	4093	98794.882974073852	1
0	4100	98849.821769195557	0
0	4197	101032.03734686109	1
0	4199	101094.606976551967	2
0	4201	101122.696636652483	1
0	4205	101127.274563243909	2
0	4211	101338.167587378158	1
0	4215	101517.21924590071	0
0	4219	101523.702577356962	1
0	4225	101836.627421648337	0
0	4349	104742.322846217043	1
0	4351	104774.736142339367	0
0	4355	104841.556946468783	1
0	4357	104931.835599929271	2
0	4364	105168.778281246418	1
0	4368	105202.641605424579	0
0	4387	105562.029910760016	1
0	4394	105686.470104496052	0
0	4409	105906.218451062961	1
0	4411	106101.127353685965	0
0	5032	123587.291758755439	1
0	5043	123694.246535959851	0
0	5083	124502.153325936732	1
0	5085	124631.606450606405	2
0	5087	124696.076302702736	1
0	5091	124737.250409209597	2
0	5093	124823.918750821959	1
0	5101	125037.004216204061	0
0	5664	138333.867941174371	1
0	5666	138339.661461864314	0
0	5674	138432.29468761207	1
0	5681	138618.435727122457	2
0	5683	138637.969019603631	1
0	5696	138795.497549019807	0
0	6408	157510.984049965287	1
0	6415	157622.402980049351	0
0	6423	157876.875889556465	1
0	6434	158002.630356611569	0
0	6517	159935.127442052771	1
0	6524	160020.608736088194	0
0	6528	160099.697189769639	1
0	6539	160315.222504944757	0
0	6694	164392.850944008281	1
0	6700	164504.43814908703	0
0	6786	166330.420190579312	1
0	6788	166367.127071734983	2
0	6790	166492.374161613875	1
0	6798	166744.918807374524	0
0	6806	166805.706587311973	1
0	6808	166995.081682302615	0
0	7361	180593.188476270866	1
0	7363	180710.693112448159	0
0	7367	180719.757994240409	1
0	7377	180852.828421505404	0
0	7502	183997.627817369362	1
0	7504	184075.789376924943	0
0	7624	187098.681898656323	1
0	7626	187154.226289756619	0
0	7630	187161.197479546457	1
0	7632	187196.737842652718	2
0	7634	187243.933152911814	3
0	7641	187445.831643186533	2
0	7645	187560.385431841527	3
0	7647	187573.995998791239	2
0	7655	187597.667461627437	1
0	7663	187850.790577464096	0
0	8151	200957.418015248025	1
0	8153	201065.268640941204	0
0	8385	207607.595208100298	1
0	8391	207833.429036292584	2
0	8393	207896.760239784799	1
0	8397	207916.371959391296	2
0	8399	207986.183479428511	1
0	8403	207991.649706065902	0
0	8752	216395.889602298341	1
0	8759	216539.958836875645	2
0	8770	216639.526690221495	1
0	8778	216794.788672980462	2
0	8784	217113.905780999466	1
0	8793	217421.377763166238	2
0	8795	217436.525709472103	3
0	8801	217513.856160094286	4
0	8808	217723.230691100011	3
0	8817	217852.822194665224	2
0	8821	217953.295645765132	1
0	8825	217962.804872491302	0
0	9003	222465.821381624398	1
0	9009	222540.762645617139	0
0	9019	222691.239087912894	1
0	9025	223000.534357402187	0
0	9252	227955.488515018321	1
0	9254	228079.465960448811	2
0	9256	228117.552816242308	1
0	9260	228132.891383398892	0
0	9275	228549.818180891303	1
0	9281	228597.796341167054	2
0	9287	228621.124018838914	1
0	9295	228830.381443948616	0
0	9432	232855.301335545767	1
0	9447	233276.768143251148	0
0	9456	233372.671333091839	1
0	9463	233535.094897734215	2
0	9465	233681.798385183766	3
0	9467	233743.941268822827	2
0	9471	233780.675873493669	3
0	9473	233790.766264795867	2
0	9481	234008.375357874131	3
0	9487	234098.160195163992	2
0	9491	234175.635972848923	1
0	9500	234213.748854177884	0
0	9508	234280.266262624647	1
0	9510	234328.71686883967	0
0	9852	243423.990529495485	1
0	9854	243434.723641013626	0
0	10101	249853.603014419388	1
0	10103	249930.990269925468	0
0	10141	250591.138789766508	1
0	10147	250917.796859403736	0
0	10233	252940.840066914751	1
0	10239	253020.211260534069	0
0	10300	254368.231068225445	1
0	10306	254557.797816745497	0
0	10310	254577.767557525066	1
0	10312	254587.062215974667	2
0	10314	254619.883841356364	1
0	10323	254904.008325230397	0
0	10408	256752.898605289373	1
0	10410	256827.890364919756	0
0	10419	256998.15258680017	1
0	10421	257001.246632226763	0
0	10425	257121.712381919666	1
0	10431	257340.730947542881	2
0	10438	257591.128704533967	3
0	10440	257614.251875123869	2
0	10444	257647.390266838129	3
0	10446	257679.205284156085	2
0	10450	257689.955172390697	1
0	10454	257751.495292094503	0
0	10663	263890.41754353161	1
0	10665	264015.531394635061	2
0	10667	264018.316773681322	3
0	10674	264066.494814615315	2
0	10678	264119.122036577025	3
0	10680	264290.218739666692	2
0	10693	264448.88121784683	1
0	10697	264517.269819524922	0
0	11100	274663.182937867773	1
0	11102	274775.74123974452	2
0	11104	274779.278681009194	3
0	11106	274901.417249471247	2
0	11110	274984.079415584554	3
0	11112	275048.517931838289	2
0	11124	275167.985897736119	3
0	11126	275252.251251011913	2
0	11130	275283.735245705161	1
0	11134	275320.273831081327	2
0	11136	275392.756874256134	1
0	11140	275504.979178044773	2
0	11147	275568.810361427024	1
0	11156	275630.74407787672	0
0	11179	276369.572346068868	1
0	11195	276507.831236652856	0
1	0	0	0
1	30	1530.217718269993	1
1	32	1884.737981449049	0
1	41	2124.629048099418	1
1	55	2522.474116926224	0
1	98	3439.365310717193	1
1	104	3742.173938198901	2
1	107	3759.544922351441	3
1	109	3829.907805774155	2
1	118	3869.592251490621	3
1	124	3913.012754471184	2
1	130	3920.97100538151	3
1	136	4035.612799419976	4
1	147	4340.88014663549	5
1	149	4388.924167870499	4
1	155	4403.05345557182	5
1	163	4605.547565476763	4
1	172	4878.546222269055	5
1	178	5101.860360420452	4
1	191	5425.999467771507	5
1	196	5609.906443363942	4
1	201	5639.319518901202	3
1	207	5654.197459952274	4
1	210	5745.532642552436	5
1	212	5764.389188178958	4
1	229	5989.557501930119	5
1	232	6262.753899032791	6
1	234	6374.139701618768	5
1	240	6396.715431281469	6
1	253	6648.557752949329	5
1	259	6895.801851845538	6
1	261	7072.946729058194	5
1	270	7426.523803343208	4
1	286	7677.953421312339	3
1	291	8037.76393931711	2
1	308	8366.366290401624	3
1	317	8596.528517381431	2
1	323	8699.17726641988	3
1	325	8893.723389028526	2
1	338	9542.266503324526	1
1	346	9822.113484918283	0
1	355	9896.864699903683	1
1	368	10130.170283871313	2
1	370	10454.448567011348	1
1	376	10470.194667758286	2
1	386	10928.615495016592	1
1	402	11319.049987951125	2
1	404	11361.304429515219	1
1	409	11493.209256409811	0
1	415	11590.447634041087	1
1	425	11876.901000462034	2
1	427	11892.082594664561	1
1	437	12172.279515698095	2
1	449	12730.842277227855	1
1	454	12748.512621141183	0
1	464	13057.51151754992	1
1	466	13433.688605580273	0
1	475	13444.647375786621	1
1	478	13450.362695323417	2
1	494	13738.911233876786	1
1	502	14200.168473954457	0
1	508	14238.985099197526	1
1	515	14282.934256739235	2
1	518	14317.209461683878	3
1	520	14641.082163785539	2
1	526	14657.653163978202	3
1	532	14837.605528788435	2
1	541	15282.58120861012	1
1	553	15446.182101403318	0
1	638	17639.573988907978	1
1	641	17812.157156532627	2
1	644	17931.160112075831	3
1	649	17957.740049688516	2
1	655	18015.102975303781	3
1	658	18153.798751705709	4
1	664	18337.45307884683	3
1	674	18508.990304687068	4
1	677	18524.83399052593	5
1	682	18653.939118652823	4
1	688	18961.300825572325	5
1	704	19318.137312047554	4
1	715	19396.747736527803	3
1	729	19744.099907552693	4
1	735	19927.697519869927	3
1	744	20097.647619235548	2
1	749	20127.399600102005	1
1	756	20221.800045275129	2
1	759	20245.061525342856	3
1	773	20616.971422486938	4
1	780	20665.645682200109	5
1	782	20681.842271439183	4
1	788	20744.235411084306	5
1	791	21023.886164199477	6
1	794	21053.792932713359	7
1	796	21085.909094807911	6
1	808	21183.361745980007	5
1	822	21628.083343520212	4
1	835	22126.48485964838	3
1	841	22171.536741458744	4
1	843	22234.13634179197	3
1	856	22508.692914359588	4
1	859	22555.052941408033	5
1	865	22654.39257942644	4
1	871	22754.640502245578	5
1	876	22875.549664420295	4
1	900	23554.077873059768	3
1	909	23760.169010302422	2
1	914	23850.003851666498	1
1	923	23965.794821509229	2
1	927	23979.675747933286	3
1	930	24005.5094005313	4
1	936	24251.758922439747	5
1	939	24257.56894412865	6
1	950	24513.886098883658	7
1	956	24809.627301885966	6
1	965	24920.280333265762	7
1	967	24958.974346365231	6
1	972	24970.92117657922	5
1	981	25135.777010859059	6
1	1000	25610.227526170584	5
1	1009	25661.417689436033	6
1	1019	26128.460696679768	7
1	1021	26159.735159685124	6
1	1030	26414.728617961901	5
1	1039	26603.070158716662	4
1	1046	26694.964022681137	5
1	1050	26696.123061781046	6
1	1057	26815.43398104583	7
1	1063	26844.449284971609	8
1	1073	27116.847529118178	9
1	1079	27187.416651034443	10
1	1082	27302.972624048611	11
1	1088	27685.894682309973	10
1	1093	27726.738132524524	9
1	1099	27758.407812836691	10
1	1108	27995.752719203381	9
1	1121	28443.444232249523	10
1	1124	28484.703902788462	11
1	1130	28649.219035548541	10
1	1135	28657.831665575875	9
1	1140	28743.647132252563	8
1	1168	29629.064883276012	9
1	1176	29728.031829535756	10
1	1179	29859.475020569783	11
1	1182	30036.829377605427	12
1	1184	30050.92244355512	11
1	1189	30090.503632209484	10
1	1194	30209.594462076573	9
1	1200	30313.954392794556	10
1	1203	30361.511197998915	11
1	1223	30771.576277153019	10
1	1229	30789.680500655837	11
1	1234	31126.87609281428	10
1	1240	31165.236276968506	11
1	1245	31269.580114835162	10
1	1268	31783.659150088577	9
1	1273	31826.305575664539	8
1	1284	32074.739286045094	9
1	1296	32277.648689772223	8
1	1303	32278.866258363612	9
1	1309	32389.025768063562	10
1	1313	32461.875137194062	11
1	1319	32540.179455592681	10
1	1325	32758.13893584867	11
1	1327	32775.590652777253	10
1	1333	32849.538108474577	11
1	1336	33152.193945317348	12
1	1339	33222.528070311435	13
1	1352	33644.299241840292	12
1	1358	33648.887853885551	13
1	1360	33682.041118850221	12
1	1372	34280.283339219539	11
1	1377	34282.512838530575	10
1	1394	34674.838270637371	11
1	1396	34920.088920435308	10
1	1405	34965.708492684399	9
1	1411	34981.355681185589	10
1	1414	35182.372613338119	11
1	1416	35190.099965217907	10
1	1441	35879.761668336961	9
1	1446	35924.404324470459	8
1	1452	36066.930935652075	9
1	1454	36091.500750898605	8
1	1464	36283.64539521383	9
1	1478	36962.186468936498	10
1	1484	37098.338477301633	9
1	1490	37201.377386535653	10
1	1493	37293.104428280667	11
1	1498	37343.722101110417	10
1	1506	37509.448804511129	9
1	1512	37944.465363813171	10
1	1529	38487.220304543524	9
1	1535	38498.863019720601	10
1	1541	38695.676092052501	11
1	1543	38718.423320993072	10
1	1548	38816.596282306511	9
1	1557	38987.513779404369	10
1	1574	39444.830395190467	11
1	1583	39726.424498684157	10
1	1591	39809.807465961575	9
1	1601	40248.9854871372	10
1	1603	40288.178289567343	9
1	1615	40369.597873136614	10
1	1618	40385.288988493578	11
1	1620	40470.667417236045	10
1	1643	40959.809199028347	11
1	1647	41085.291101974819	10
1	1654	41283.145684708858	11
1	1660	41433.227088625766	10
1	1665	41577.58567452468	9
1	1674	41603.776460398937	10
1	1677	41657.249525716814	11
1	1690	41890.2667983725	12
1	1693	41896.613875811005	13
1	1700	42124.565944099872	14
1	1706	42331.865824355967	13
1	1712	42342.085241579149	14
1	1717	42600.73353799564	13
1	1722	42606.829501483962	12
1	1731	42773.581287275188	13
1	1743	43237.411086741287	12
1	1752	43381.753520309429	13
1	1755	43436.826762364454	14
1	1764	43511.732448358461	13
1	1777	43682.32692985974	14
1	1780	43731.475260420242	15
1	1783	43801.836571694378	16
1	1795	43939.170824873484	15
1	1804	44096.753622528124	16
1	1807	44097.860508854426	17
1	1809	44111.892904364887	16
1	1814	44220.900118649378	15
1	1820	44254.136718004446	16
1	1823	44267.883732534868	17
1	1826	44337.831217434216	18
1	1844	44946.384402436427	17
1	1849	45098.343743509996	16
1	1861	45360.490755048021	15
1	1867	45473.79706876003	16
1	1869	45635.021044981889	15
1	1879	45937.124940320094	16
1	1885	46280.59432147745	15
1	1897	46696.665536114398	14
1	1909	46930.443303017318	13
1	1918	47213.504997785211	14
1	1927	47362.436238971762	13
1	1950	47840.767122672991	14
1	1953	47893.952683740155	15
1	1956	48011.638927860822	16
1	1959	48013.767444454436	17
1	1964	48169.671825324569	16
1	1972	48384.224239355326	15
1	1978	48399.707220660643	16
1	1988	48688.278771665208	17
1	1991	48693.651227094268	18
1	1994	48701.33766090762	19
1	1996	48810.812164393477	18
1	2004	49175.939049641986	17
1	2022	49620.626066650208	18
1	2027	49917.750882506743	17
1	2032	49981.998840482359	16
1	2038	50124.044461491251	17
1	2043	50297.55940275941	16
1	2049	50526.113304810135	17
1	2056	50668.36317986613	18
1	2066	50769.730497450009	17
1	2078	51280.422821003397	16
1	2089	51571.488825182654	15
1	2105	52139.312894810364	14
1	2111	52301.670289123946	15
1	2113	52318.377116960858	14
1	2119	52325.848264422974	15
1	2121	52369.371164149828	14
1	2144	52916.106138322547	15
1	2147	52979.787984380991	16
1	2156	53285.476617903672	15
1	2162	53485.086487419205	16
1	2167	53781.682140110434	15
1	2172	53887.965590260376	14
1	2184	54080.986525552998	15
1	2190	54223.151362466434	16
1	2196	54269.749546411671	15
1	2202	54315.888805749004	16
1	2212	54660.929125590739	17
1	2226	54921.737972887122	18
1	2228	54986.593582216103	17
1	2233	55154.342619246245	16
1	2239	55209.101120174766	17
1	2241	55255.94296364788	16
1	2247	55269.795846740435	17
1	2257	55706.700011345366	18
1	2276	56209.974218518857	17
1	2282	56257.092398741238	18
1	2285	56284.667047867716	19
1	2288	56330.677679189245	20
1	2293	56464.869117355347	19
1	2298	56562.686291520708	18
1	2314	56978.353007496718	17
1	2320	57340.130880342909	18
1	2322	57395.099631036073	17
1	2335	57564.625020406433	16
1	2341	57672.621008301503	17
1	2344	57708.247730095	18
1	2353	57822.137651802424	17
1	2359	57889.32361911487	18
1	2377	58375.017263858803	17
1	2383	58480.939469013887	18
1	2392	58552.688862062443	17
1	2398	58896.720262975719	18
1	2401	58910.417502762545	19
1	2407	58977.86949255541	18
1	2420	59147.995005514638	19
1	2423	59170.320964614565	20
1	2425	59403.725207333677	19
1	2430	59583.797247657005	18
1	2436	59606.64865477353	19
1	2460	60088.181314538989	20
1	2462	60275.35131312944	19
1	2467	60493.422234353833	18
1	2482	61058.97355250587	17
1	2492	61075.070541115875	18
1	2501	61244.513208755586	19
1	2504	61247.81419204315	20
1	2507	61376.427408834776	21
1	2510	61567.491059490774	22
1	2512	61755.039787479118	21
1	2518	61793.839809278066	22
1	2524	61960.855229557876	21
1	2529	61964.948179803081	20
1	2539	62170.713912653179	21
1	2548	62570.18863609098	20
1	2556	62693.462710096885	19
1	2566	62854.626089118825	20
1	2569	62863.362710090224	21
1	2578	63486.71269453805	20
1	2587	63687.373227398295	19
1	2592	64121.876079549306	18
1	2597	64134.567480637134	17
1	2613	64593.493105662439	16
1	2630	64873.995851206093	17
1	2636	64910.293525532674	18
1	2642	65121.522034611926	17
1	2647	65365.141244237695	16
1	2652	65384.565867453107	15
1	2662	65546.19671572568	16
1	2669	65755.421038889994	17
1	2677	66025.020264150027	16
1	2686	66234.150448516384	15
1	2692	66316.176169077381	16
1	2697	66367.485330158138	15
1	2718	66940.681918702227	16
1	2721	66953.266169944272	17
1	2723	66999.944699057761	16
1	2735	67470.577724473924	15
1	2741	67597.173178574018	16
1	2743	67737.484686129951	15
1	2759	68235.151636382017	14
1	2768	68355.296097712507	15
1	2773	68551.603363454715	14
1	2781	68669.853972659671	13
1	2795	69053.456233033406	14
1	2807	69107.9743778559	15
1	2810	69141.904911134039	16
1	2812	69197.151134908572	15
1	2817	69254.524514819879	14
1	2837	69639.489796445235	15
1	2840	69715.202992158662	16
1	2842	69812.766758610719	15
1	2854	70118.057633834332	14
1	2860	70191.135642790663	15
1	2862	70355.791443125728	14
1	2871	70404.359223202194	15
1	2878	70600.150130351893	16
1	2885	70682.355553902927	17
1	2891	71022.633991251141	16
1	2897	71260.449319392904	17
1	2899	71346.264474892282	16
1	2910	71670.690538217697	15
1	2924	71851.340497154228	16
1	2929	71979.541327941456	15
1	2934	72081.622965662182	14
1	2947	72607.04592189057	15
1	2949	72619.551140698988	14
1	2959	72790.329021628464	15
1	2972	72941.67731634929	16
1	2975	73051.186550222987	17
1	2977	73186.3192744248	16
1	2986	73444.07329274556	17
1	2999	73624.290940906247	18
1	3001	73760.378719997034	17
1	3006	73835.438699207493	16
1	3022	74268.059933768038	15
1	3028	74365.977079482313	16
1	3031	74417.882065713513	17
1	3033	74488.258842351288	16
1	3039	74539.401165926916	17
1	3046	74775.063448748919	18
1	3048	74813.058021680676	17
1	3056	75018.124070526485	16
1	3077	75426.432522272325	17
1	3089	75866.928066655286	16
1	3095	75973.910834823752	17
1	3097	76124.194986354933	16
1	3106	76404.587830002804	15
1	3115	76438.274332222551	16
1	3121	76606.032081308999	15
1	3137	76704.99214687109	16
1	3142	76843.097890755535	15
1	3151	77188.797543036624	16
1	3164	77560.460756631021	15
1	3170	77601.565464201143	16
1	3172	77640.291255135463	15
1	3178	77707.463873704993	16
1	3188	77856.499520647619	17
1	3191	77879.801316211952	18
1	3194	77921.36095583736	19
1	3199	78129.347175040507	18
1	3205	78244.713771393811	19
1	3217	78363.315818179773	18
1	3226	78954.360427009389	19
1	3242	79178.037416884129	18
1	3248	79202.198052978207	19
1	3251	79250.655166266005	20
1	3260	79568.936969992148	19
1	3265	79584.000366001615	18
1	3271	79641.95741313079	19
1	3279	79875.7143727461	18
1	3285	79977.900548486351	19
1	3299	80278.424494301207	20
1	3302	80386.114333848866	21
1	3307	80538.405124037912	20
1	3313	80542.949966272143	21
1	3319	80773.389249649274	20
1	3325	80793.895134065938	21
1	3328	80848.649229483126	22
1	3336	81159.678983451253	21
1	3341	81177.624025016317	20
1	3347	81208.419133479876	21
1	3360	81431.328415509453	22
1	3369	81769.47423860935	21
1	3378	81952.026744277164	22
1	3381	82000.943376210925	23
1	3384	82010.636777972088	24
1	3391	82116.06076540268	25
1	3397	82150.42047885921	24
1	3406	82275.171084348488	23
1	3429	83035.872416667697	24
1	3431	83312.000341189319	23
1	3436	83339.217739231339	22
1	3444	83514.466149770099	21
1	3460	83950.480590259167	22
1	3471	84111.816685867463	23
1	3474	84156.68540111688	24
1	3477	84228.486989756557	25
1	3480	84246.841968476901	26
1	3485	84558.844861444461	25
1	3490	84682.74286452424	24
1	3495	84773.272323352671	23
1	3513	84977.595487796243	24
1	3516	85190.575495876244	25
1	3519	85239.806460546452	26
1	3526	85331.124978624757	27
1	3535	85378.193133107612	26
1	3541	85565.843858089465	27
1	3551	85742.444568520022	28
1	3556	85925.212644124779	27
1	3573	86209.723735060463	28
1	3575	86360.905484684969	27
1	3580	86383.485981901563	26
1	3586	86683.656417885779	27
1	3593	86769.280589135726	28
1	3595	86977.160814439173	27
1	3600	87037.410085965323	26
1	3619	87579.286556544397	27
1	3625	87836.749977224733	26
1	3634	88007.952903011269	25
1	3639	88049.207710530984	24
1	3645	88162.747724251831	25
1	3660	88585.987918386517	26
1	3666	88823.014563487081	27
1	3668	88931.780041251707	26
1	3679	89299.721929391141	25
1	3685	89491.284955164955	26
1	3687	89502.305912333927	25
1	3713	89808.782674370942	26
1	3717	90047.470659275766	25
1	3726	90127.380435059752	26
1	3732	90234.423445822126	25
1	3739	90340.946953584996	26
1	3742	90497.035677543518	27
1	3744	90515.257250825319	26
1	3750	90583.337741198923	27
1	3764	91009.030585960752	28
1	3766	91065.463026990569	27
1	3772	91151.059858830255	28
1	3785	91367.990822819618	29
1	3791	91519.593490191962	28
1	3797	91734.195647196959	29
1	3803	91881.896920483935	28
1	3809	91910.359896162503	29
1	3817	92107.61362160129	28
1	3833	92379.800494491064	29
1	3842	92571.757812323424	28
1	3855	92900.24618622453	29
1	3857	92994.448470189623	28
1	3862	93005.522413996275	27
1	3868	93013.163118668474	28
1	3871	93124.384542439965	29
1	3874	93274.27014650538	30
1	3884	93482.914494519303	31
1	3893	93640.141291953999	30
1	3902	93921.419689126768	31
1	3905	93990.175308814059	32
1	3908	93999.354045534693	33
1	3916	94334.799492312971	32
1	3921	94461.651532125886	31
1	3926	94506.69840768484	30
1	3943	94838.395078965258	31
1	3953	95046.683555925675	32
1	3960	95330.528737895468	33
1	3962	95498.689860366661	32
1	3974	95895.752061079644	31
1	3979	96081.228532062139	30
1	3984	96228.691434702281	29
1	3993	96245.113300433634	30
1	3996	96260.799002611488	31
1	4003	96562.857254948379	32
1	4012	97052.240867237948	31
1	4017	97066.585006807376	30
1	4030	97331.976219120658	31
1	4043	97734.268490706797	30
1	4051	97963.230749173466	29
1	4057	98019.180327042611	30
1	4059	98044.975167825274	29
1	4072	98175.699297538339	30
1	4088	98785.014138275053	29
1	4095	98819.132433557339	28
1	4102	98849.821769195557	29
1	4105	98864.789081727803	30
1	4108	98914.073402022946	31
1	4113	99194.118423061822	30
1	4119	99301.564261005	31
1	4126	99682.582663196087	32
1	4128	99683.313243228238	31
1	4141	99800.133379368905	32
1	4161	100401.084218592714	33
1	4164	100414.759089703586	34
1	4166	100425.638548244949	33
1	4172	100444.054461637941	34
1	4174	100495.955224377491	33
1	4182	100649.554007938508	32
1	4203	101122.696636652483	33
1	4213	101338.167587378158	34
1	4217	101517.21924590071	35
1	4227	101836.627421648337	36
1	4230	101884.94412186059	37
1	4232	101886.171902946423	36
1	4237	101942.682432630487	35
1	4243	101966.652087108862	36
1	4246	102154.547824458315	37
1	4251	102198.715146603439	36
1	4260	102529.324245919784	37
1	4263	102579.017742609514	38
1	4280	103095.689747312333	37
1	4286	103170.793093534596	38
1	4288	103524.623986934699	37
1	4297	103606.471525995887	38
1	4300	103608.438911944761	39
1	4302	103751.460465938229	38
1	4315	104190.321832054522	37
1	4333	104383.11589229425	36
1	4353	104774.736142339367	37
1	4359	104932.571590766687	36
1	4366	105168.778281246418	37
1	4370	105202.641605424579	38
1	4373	105287.469814182182	39
1	4378	105343.199175051801	38
1	4389	105656.959585349303	37
1	4396	105686.470104496052	38
1	4398	105734.548114678268	37
1	4404	105742.365960248136	38
1	4413	106101.127353685965	39
1	4416	106136.159499349888	40
1	4423	106221.626751345688	41
1	4426	106221.699107544679	42
1	4439	106502.011048221417	41
1	4450	106748.79354305603	40
1	4460	106842.119098774802	41
1	4466	107067.7128161891	42
1	4469	107208.097437972316	43
1	4471	107318.481353751611	42
1	4477	107329.657792170603	43
1	4480	107426.478130572714	44
1	4490	107757.386222253571	45
1	4499	108127.930158949845	44
1	4505	108175.960241785991	45
1	4507	108284.490166390691	44
1	4517	108722.184985918327	45
1	4519	108814.566555700492	44
1	4528	109224.692221829124	43
1	4540	109662.544059744481	42
1	4555	110055.798056912996	41
1	4561	110226.707272237433	42
1	4568	110380.373504540922	43
1	4571	110389.838641538682	44
1	4577	110491.243565527018	43
1	4582	110560.70212140717	42
1	4590	111086.176750227265	41
1	4606	111412.857343173031	40
1	4619	111905.082857831254	41
1	4622	111942.72306073736	42
1	4627	112073.507985421844	41
1	4636	112170.680130643066	40
1	4641	112290.681781974066	39
1	4647	112421.453762463073	40
1	4658	113053.112264126987	41
1	4664	113061.550688706715	40
1	4669	113071.508757644721	39
1	4674	113331.325053868111	38
1	4690	113712.197736301847	37
1	4699	114091.829759703805	38
1	4705	114154.831997410677	39
1	4707	114165.281389104579	38
1	4716	114254.832497245859	37
1	4725	114761.687653907962	36
1	4739	115252.636711203166	37
1	4744	115523.788774998154	36
1	4753	115658.295164592941	35
1	4758	115893.168335049801	34
1	4775	116412.680874075028	35
1	4777	116526.03343211789	34
1	4791	117164.742929879943	35
1	4793	117265.990661634509	34
1	4798	117545.607171465869	33
1	4806	117572.051759432458	32
1	4829	118193.593532589491	31
1	4835	118216.022802441978	32
1	4837	118373.149522627149	31
1	4843	118505.188745352051	32
1	4849	118898.651545420975	33
1	4855	119129.205385926568	32
1	4861	119198.825454054928	33
1	4867	119540.922800619532	32
1	4872	119597.028747235652	31
1	4877	119867.779346122795	30
1	4903	120435.305402977769	29
1	4909	120475.173959399914	30
1	4918	120601.318076678779	29
1	4923	120631.676405487039	28
1	4935	121220.267128494795	27
1	4941	121308.950985169317	28
1	4948	121361.868608677157	29
1	4961	121560.320437234272	28
1	4967	121605.25116156125	29
1	4973	122056.379464449406	30
1	4979	122247.143558725172	29
1	4985	122525.857363550219	30
1	4987	122530.532193016638	29
1	4993	122538.398338157593	30
1	4999	122771.065987355303	29
1	5018	123336.077155718037	28
1	5034	123605.208911678981	27
1	5045	123694.246535959851	28
1	5048	123769.045258386678	29
1	5054	123813.549100655777	30
1	5056	123978.559679370751	29
1	5069	124269.353054212079	30
1	5074	124427.32444339005	29
1	5089	124696.076302702736	30
1	5095	124823.918750821959	31
1	5103	125037.004216204061	32
1	5105	125052.353913449129	31
1	5110	125170.726444225054	30
1	5116	125320.192996810388	31
1	5118	125610.039200638809	30
1	5124	125622.022832169042	31
1	5130	125728.629679317033	30
1	5136	125754.031185112309	31
1	5139	125922.45510078382	32
1	5157	126540.480729567482	33
1	5165	126687.742311787238	32
1	5170	126753.446381704178	31
1	5179	126852.984491660062	32
1	5181	126897.748165852778	31
1	5191	126982.849361680838	32
1	5205	127879.050960663897	33
1	5207	127916.182791395491	32
1	5216	127930.702761900944	33
1	5218	128049.778595759761	32
1	5226	128319.223700068348	31
1	5232	128376.263088183419	32
1	5256	128972.528724925418	33
1	5258	128986.544101778796	32
1	5264	128991.353802006715	33
1	5270	129195.853360311207	34
1	5276	129445.424229892265	35
1	5282	129502.958510778196	36
1	5284	129562.685375900236	35
1	5294	129578.363637244852	36
1	5296	129597.826110874691	35
1	5301	129856.1234276373	34
1	5313	130061.583638774872	35
1	5319	130166.471338567552	34
1	5324	130207.435414516755	33
1	5337	130335.28813402375	34
1	5340	130340.497719297614	35
1	5358	130905.179988866282	36
1	5360	131183.508360383329	35
1	5366	131233.343756436253	36
1	5368	131238.077493207908	35
1	5380	131509.368652176556	36
1	5382	131695.450101248377	35
1	5391	131903.051000424108	34
1	5404	132178.630114364422	35
1	5409	132354.929382370082	34
1	5423	132584.890779664006	35
1	5429	132727.218039922283	36
1	5442	133120.741724667951	37
1	5444	133305.234075948053	36
1	5452	133465.762345968193	35
1	5458	133496.910044929843	36
1	5460	133819.379565806357	35
1	5466	133870.39679525316	36
1	5477	134095.68796558951	37
1	5487	134422.307985791245	38
1	5489	134491.24727458731	37
1	5494	134608.1832750844	36
1	5520	135274.574172027698	37
1	5522	135480.302638250632	36
1	5530	135535.918785701895	35
1	5536	135671.186297353554	36
1	5539	135675.021519304716	37
1	5542	135695.41141947459	38
1	5547	135931.110489443324	37
1	5560	136022.146072793869	38
1	5566	136103.196467409276	39
1	5573	136295.267438245758	40
1	5578	136579.088165741793	39
1	5583	136602.681235098669	38
1	5599	137064.926250779299	37
1	5609	137208.252348867999	38