version 2
run Iteration-66-20200521-09:55:07-53072
attr configname Iteration
attr datetime 20200521-09:55:07
attr experiment Iteration
attr inifile omnetpp.ini
attr iterationvars "$i=7, $j=4, $0=15-(7+4)"
attr iterationvarsf i=7,j=4,15-(7+4)-
attr measurement "$i=7, $j=4, $0=15-(7+4)"
attr network Network
attr processid 53072
attr repetition 0
attr replication #0
attr resultdir results
attr runnumber 66
attr seedset 66
itervar i 7
itervar j 4
param **.resourcePool.amount 7
param **.resourcePool1.amount 4
param **.resourcePool2.amount 15-(7+4)
param **.source.interArrivalTime exponential(6min)
param **.delay.delay uniform(4min,28min)
param **.delay1.delay uniform(10min,28min)
param **.delay2.delay uniform(4min,16min)
param **.allocate.resourceModuleName "\"Network.resourcePool\""
param **.allocate1.resourceModuleName "\"Network.resourcePool1\""
param **.allocate2.resourceModuleName "\"Network.resourcePool2\""
param **.deallocate.resourceModuleName "\"Network.resourcePool\""
param **.deallocate1.resourceModuleName "\"Network.resourcePool1\""
param **.deallocate2.resourceModuleName "\"Network.resourcePool2\""
param **.router.randomGateIndex "uniform(0, 1) > 0.2 ? 0 : 1"

vector 0 Network.allocate queueLength:vector ETV
attr interpolationmode sample-hold
attr title "queue length, vector"
vector 1 Network.allocate1 queueLength:vector ETV
attr interpolationmode sample-hold
attr title "queue length, vector"
vector 2 Network.allocate2 queueLength:vector ETV
attr interpolationmode sample-hold
attr title "queue length, vector"
vector 3 Network.sinkStat lifeTime:vector ETV
attr interpolationmode none
attr title "lifetime of arrived jobs, vector"
attr unit s
vector 4 Network.sink lifeTime:vector ETV
attr interpolationmode none
attr title "lifetime of arrived jobs, vector"
attr unit s
0	0	0	0
0	609	11526.391268027243	1
0	616	11536.707786928791	0
0	792	14767.876276685406	1
0	794	14786.828685331463	0
0	5029	114966.23558050453	1
0	5044	115187.51468030879	0
0	6373	145079.14023045892	1
0	6379	145177.555114423757	0
0	7394	172142.4386453503	1
0	7400	172152.068244411376	2
0	7406	172228.711662208751	1
0	7415	172519.065677368118	2
0	7417	172637.767134486912	1
0	7422	172759.4485164147	0
0	8097	188307.89777912334	1
0	8099	188310.581134278234	0
0	8103	188333.332453755444	1
0	8113	188534.325082925169	0
1	0	0	0
1	43	1470.678094295523	1
1	45	1697.016456516371	0
1	51	1739.753298535208	1
1	57	2065.478043244799	2
1	59	2070.061883759503	1
1	67	2078.027111271615	0
1	76	2210.2828103474	1
1	88	2448.771762687624	0
1	94	2453.841344225989	1
1	96	2469.961259233419	0
1	137	3293.782255700878	1
1	146	3451.654291505579	0
1	152	3501.564801216221	1
1	161	3733.55306373714	0
1	185	3928.654856688304	1
1	188	3965.839911903761	2
1	200	4106.436436026011	1
1	212	4357.589379249052	0
1	218	4526.812747693864	1
1	223	4664.05836727444	0
1	247	4765.057677912868	1
1	253	4922.603696547693	0
1	259	4971.610572753321	1
1	265	5162.35295886933	2
1	275	5428.624367082903	3
1	281	5464.769853115186	4
1	286	5478.88881029366	3
1	295	5647.763864239416	2
1	300	5666.817216270276	1
1	310	5859.762760079362	2
1	313	5872.730696541019	3
1	316	5905.062650660282	4
1	322	6128.254274623713	3
1	343	6667.20341169466	4
1	345	6676.533468205393	3
1	351	6677.479556534633	4
1	357	6740.894354001878	5
1	362	6927.414637142531	4
1	367	7077.664830612623	3
1	373	7138.354220594201	4
1	378	7242.657364579162	3
1	388	7350.786952913669	4
1	407	7720.190137571328	3
1	420	8048.471357700022	4
1	422	8050.740655155764	3
1	430	8189.756218921638	2
1	436	8312.558699732414	3
1	439	8338.462443672706	4
1	441	8406.868190718554	3
1	451	8460.431676662508	4
1	467	8855.392924856999	3
1	486	9227.983137834159	4
1	488	9234.506492652244	3
1	494	9291.5318694071	4
1	499	9349.597668180154	3
1	505	9499.185067348305	4
1	511	9546.284669883015	5
1	514	9606.036711077668	6
1	525	9943.258575128509	7
1	534	9977.083987109102	6
1	540	10029.249676387921	7
1	543	10036.926251314238	8
1	548	10168.787687791423	7
1	554	10351.968756548823	8
1	556	10495.248639735066	7
1	568	10654.786696899927	6
1	592	11349.187010361129	7
1	598	11405.940573421106	8
1	611	11526.440278859548	7
1	618	11536.707786928791	8
1	621	11563.781674118977	9
1	623	11563.988788731308	8
1	628	11616.032564372428	7
1	638	11854.51027609759	8
1	640	11887.807005821041	7
1	649	11962.968252320093	8
1	652	11967.85613164992	9
1	655	12037.48604257744	10
1	669	12629.110741100263	11
1	671	12632.986776195206	10
1	680	12889.404963823281	9
1	686	12925.768539208848	10
1	696	13003.633458690006	11
1	698	13044.584146112116	10
1	703	13089.509050941699	9
1	709	13221.284917224483	10
1	715	13291.644430344058	11
1	732	13767.670759213828	10
1	740	13882.720591070043	9
1	751	14191.837559940898	8
1	760	14310.514700133599	7
1	776	14440.840315543142	8
1	782	14657.449158394127	9
1	787	14743.0711214318	8
1	796	14786.828685331463	9
1	803	14923.207917744031	10
1	806	14930.612191183928	11
1	815	15195.623492530599	12
1	822	15251.434756072474	13
1	824	15353.690616683774	12
1	834	15425.125195501007	13
1	837	15448.199056874334	14
1	839	15510.673829915607	13
1	845	15889.792334076373	14
1	847	15902.497249562539	13
1	856	16117.575583726081	12
1	862	16233.154717154283	13
1	868	16543.836452765636	12
1	877	16609.138106815257	11
1	890	16778.959452587997	12
1	896	17102.247882767254	11
1	908	17436.934437872582	10
1	914	17452.153368104205	11
1	916	17654.81222963697	10
1	922	17903.366893402543	11
1	928	17974.207169816503	10
1	933	18016.156805996098	9
1	938	18091.983697721475	8
1	962	18444.4776299816	9
1	968	18703.447172751564	8
1	973	18892.904510537768	7
1	985	19079.359869556242	6
1	991	19303.920050867429	7
1	1001	19526.787427093748	6
1	1007	19559.538154484107	7
1	1009	19586.150123207145	6
1	1022	19993.282879404464	5
1	1033	20335.600098641836	4
1	1041	20512.756378727639	3
1	1053	20789.599979117427	2
1	1062	20967.15874586279	1
1	1083	21328.293011057862	0
1	1089	21438.811616626421	1
1	1091	21625.963449974218	0
1	1108	21785.34940584939	1
1	1110	21856.970153290693	0
1	1205	23841.122372251138	1
1	1216	24292.48935316764	2
1	1218	24313.355424556464	1
1	1223	24320.915174926328	0
1	1229	24350.727746294429	1
1	1232	24402.085917989732	2
1	1237	24567.028063229135	1
1	1256	25187.562956857242	0
1	1313	26305.454335417011	1
1	1323	26593.528971747242	0
1	1329	26603.710844144151	1
1	1332	26614.685263089826	2
1	1347	27038.591731041623	1
1	1352	27176.256811316664	0
1	1358	27478.608864613829	1
1	1364	27735.367131250064	0
1	1370	27736.109991114041	1
1	1376	27816.775359144042	0
1	1385	28164.869817097371	1
1	1391	28235.827092527915	2
1	1393	28264.604075477205	1
1	1398	28335.368231311394	0
1	1408	28512.465939550244	1
1	1418	28597.534506309168	2
1	1427	28683.809698632072	1
1	1436	28765.969447293858	0
1	1445	28966.338809965563	1
1	1447	28976.291566220997	0
1	1483	29959.349557778714	1
1	1485	30072.527671892281	0
1	1585	32488.155141313902	1
1	1596	32661.803928520932	0
1	1613	32954.585470021714	1
1	1626	33330.467264932476	0
1	1632	33439.3920932866	1
1	1635	33460.520183062139	2
1	1637	33531.158317007911	1
1	1643	33751.190439966177	2
1	1645	33796.895784754708	1
1	1651	33902.53889013276	2
1	1666	34293.360550955696	3
1	1668	34404.109020960413	2
1	1676	34599.941031094483	1
1	1681	34718.475328460738	0
1	1807	37685.154583215289	1
1	1809	37719.284649998041	0
1	1971	42187.895393960919	1
1	1977	42431.924664819673	0
1	2023	43366.020605504716	1
1	2032	43534.655654191384	0
1	2042	43570.274895628438	1
1	2054	43998.440449092597	0
1	2083	44592.279069749612	1
1	2088	44709.740684500987	0
1	2094	44729.898318638523	1
1	2097	44842.55710523632	2
1	2099	44885.920648988396	1
1	2107	45156.433288188065	0
1	2113	45243.498448650687	1
1	2122	45523.03959797515	0
1	2242	47666.966525329622	1
1	2248	47787.013120734174	2
1	2250	47958.917468028087	1
1	2271	48154.78314266898	2
1	2274	48225.252242650939	3
1	2276	48267.749300762267	2
1	2286	48548.342168308435	3
1	2289	48713.771755983235	4
1	2291	48795.677113159239	3
1	2297	48841.690936013129	4
1	2299	48864.74296220329	3
1	2305	48885.767254021609	4
1	2317	49104.457528000642	3
1	2327	49228.840570714334	4
1	2333	49497.058637556807	3
1	2345	49746.668677540441	2
1	2355	50197.400438734914	3
1	2360	50302.838601841271	2
1	2365	50417.48378196482	1
1	2377	50719.422560152785	0
1	2394	50816.535092503524	1
1	2402	51331.736515934881	0
1	2428	51570.852899742835	1
1	2442	51837.030070423741	2
1	2444	51969.602796114237	1
1	2449	52048.551809154826	0
1	2469	52421.094783184171	1
1	2474	52764.487602801364	0
1	2490	52998.547035593778	1
1	2498	53085.570042225702	0
1	2504	53102.437548759956	1
1	2506	53169.784459229934	0
1	2512	53324.868294905141	1
1	2518	53416.570670749353	2
1	2521	53437.710153588507	3
1	2523	53476.051745410265	2
1	2540	53877.386380704684	3
1	2543	53889.004381433195	4
1	2554	54214.354282436012	5
1	2556	54224.534498425576	4
1	2561	54433.394572294619	3
1	2569	54699.367267889141	2
1	2575	54819.765096986333	3
1	2577	54823.309121788667	2
1	2583	54842.44505870104	3
1	2598	55256.872684055155	4
1	2600	55272.78366008811	3
1	2605	55460.724402142059	2
1	2614	55638.172287465244	1
1	2626	55694.998544077577	0
1	2788	60967.869159336352	1
1	2790	61095.543046048436	0
1	2796	61110.604377009198	1
1	2802	61208.521421846173	2
1	2804	61301.595907293591	1
1	2816	61361.112811911996	0
1	2822	61361.752594593446	1
1	2827	61541.718758126909	0
1	2847	61921.70143172089	1
1	2849	62181.708025740985	0
1	2867	62449.647145734433	1
1	2869	62471.928081585425	0
1	2875	62507.687740625955	1
1	2887	62838.264979018087	0
1	2900	63085.876714931086	1
1	2903	63170.836235248401	2
1	2916	63518.543496325905	1
1	2921	63524.454104420323	0
1	2927	63639.603635321774	1
1	2933	63844.070744932029	0
1	2946	64171.087543181145	1
1	2948	64316.31477971055	0
1	3135	69039.203773097555	1
1	3138	69192.617885424633	2
1	3145	69270.256313985622	3
1	3150	69319.392712566799	2
1	3156	69364.473655770196	3
1	3159	69533.645840510881	4
1	3161	69614.031573860683	3
1	3171	69829.467287471446	4
1	3173	69833.025729378943	3
1	3178	69882.771588166101	2
1	3188	70418.50397286666	3
1	3207	70768.192808389461	2
1	3212	70837.795209745654	1
1	3218	71041.843249827384	2
1	3220	71044.293264330222	1
1	3226	71080.573324557166	2
1	3235	71352.870949303989	1
1	3254	71865.091496401324	0
1	3260	71981.695891964129	1
1	3262	71997.530067734218	0
1	3268	71999.249550135538	1
1	3274	72201.43217753831	0
1	3395	74724.214650459139	1
1	3400	74869.196259218689	0
1	3414	75012.630290380952	1
1	3417	75202.736437307614	2
1	3420	75341.808125527975	3
1	3422	75392.757779860944	2
1	3428	75516.86574135004	3
1	3430	75591.78109330795	2
1	3443	75777.393985295158	1
1	3451	75961.00313512605	0
1	3468	76577.281099874811	1
1	3470	76631.056344180547	0
1	3625	80765.560148724319	1
1	3634	80860.052625466455	2
1	3637	80884.997477868969	3
1	3639	80915.363395291547	2
1	3644	81073.543988458996	1
1	3650	81124.671666695946	2
1	3659	81469.883304190494	1
1	3671	81725.783684249161	0
1	3677	81827.35585331638	1
1	3682	82061.934018705224	0
1	3780	84224.006005993185	1
1	3782	84301.998681645148	0
1	3794	84503.643938964551	1
1	3797	84601.751289595948	2
1	3799	84639.091166916782	1
1	3805	84667.428958152127	2
1	3808	84743.831423246126	3
1	3811	84775.675296728056	4
1	3818	84942.278549872172	5
1	3828	85248.481090431218	4
1	3840	85539.219901678159	5
1	3842	85621.446789982968	4
1	3847	85654.58925873741	3
1	3852	85682.51847216522	2
1	3861	85783.959935659469	3
1	3876	86129.833245462854	2
1	3885	86183.32437552787	3
1	3888	86287.710447496909	4
1	3906	86739.100054629455	5
1	3908	86760.040402278655	4
1	3917	86980.94090596331	3
1	3923	87065.878225880513	4
1	3926	87071.191813860263	5
1	3933	87109.452609746398	6
1	3935	87225.765753396903	5
1	3941	87299.173332344479	6
1	3943	87318.876340796719	5
1	3970	87839.736754445296	6
1	3973	87888.297282554074	7
1	3975	88123.080520952471	6
1	3983	88398.47793735122	5
1	3992	88684.459440547521	4
1	3997	88698.059627692332	3
1	4003	88800.743028877521	4
1	4009	88958.839731017478	3
1	4031	89496.983649493434	2
1	4037	89501.565921976078	3
1	4043	89635.56934474886	2
1	4056	89916.184378654632	3
1	4069	90141.04985891181	4
1	4071	90171.935727463583	3
1	4076	90230.039462704562	2
1	4081	90452.182997073164	1
1	4086	90476.909667109378	0
1	4092	90558.349359778992	1
1	4098	90765.925865510747	2
1	4109	90963.773018963389	3
1	4116	91114.793032866568	4
1	4125	91611.056651535923	3
1	4130	91685.842450788595	2
1	4135	91726.267079942977	1
1	4140	91887.762143626117	0
1	4153	92007.837810168181	1
1	4160	92029.46170169238	2
1	4162	92223.658714040662	1
1	4167	92415.670960330522	0
1	4312	96529.302757533417	1
1	4314	96756.088568572188	0
1	4320	96804.486383110993	1
1	4322	96951.72724170183	0
1	4530	103559.819870208665	1
1	4532	103687.611342586047	0
1	4666	108095.90303833691	1
1	4669	108295.192948037036	2
1	4671	108540.283135216717	1
1	4680	108623.855301397346	2
1	4694	108899.606314780667	1
1	4699	108917.023147953561	0
1	4713	109134.461089267363	1
1	4722	109245.606064995785	0
1	4732	109400.333916507148	1
1	4735	109478.152973131707	2
1	4742	109497.396177634385	3
1	4744	109614.839947442069	2
1	4750	109622.218340331424	3
1	4760	109885.865360326624	2
1	4765	109898.697875192423	1
1	4779	110241.816644947572	2
1	4784	110247.035840408763	1
1	4795	110315.238160169228	0
1	4805	110409.55399146624	1
1	4807	110757.246732315083	0
1	4827	111139.328109076724	1
1	4829	111143.123560310832	0
1	4851	111656.604084781053	1
1	4857	111728.901393826544	2
1	4863	111917.498301961004	1
1	4871	112117.40543382757	0
1	4906	112541.735721510659	1
1	4927	112965.264794586954	2
1	4929	113192.628044015273	1
1	4934	113269.962114904306	0
1	4940	113287.877031033182	1
1	4942	113351.179604287399	0
1	4969	113828.819524852593	1
1	4972	113892.569692654102	2
1	4982	113977.629087239734	1
1	4995	114240.206768195446	2
1	5009	114680.412027914554	1
1	5019	114796.374276986649	2
1	5024	114917.187638347177	1
1	5031	114999.192740608237	0
1	5050	115190.024636043371	1
1	5053	115232.151994482294	2
1	5055	115336.347276721627	1
1	5068	115493.775140965768	2
1	5071	115647.383391108656	3
1	5082	115889.232592888427	4
1	5085	115897.026953605504	5
1	5088	115954.454445226078	6
1	5097	116251.446385906578	5
1	5102	116274.409162298916	4
1	5108	116522.520156495733	5
1	5113	116615.433784680918	4
1	5121	116662.210592225424	3
1	5131	116910.816447921258	4
1	5133	116923.068857629923	3
1	5139	116963.336228405454	4
1	5150	117208.421580705969	5
1	5152	117410.535389695547	4
1	5157	117484.383664647594	3
1	5170	117629.232311164169	2
1	5175	117737.963480932207	1
1	5206	118786.863285964428	2
1	5208	118964.653060009272	1
1	5213	118973.571897618949	0
1	5353	122724.638847107731	1
1	5356	122885.727451744694	2
1	5358	123077.76036365926	1
1	5363	123136.303504286801	0
1	5472	125225.931988570882	1
1	5475	125348.697931999247	2
1	5485	125484.127431057491	3
1	5487	125484.338039427926	2
1	5493	125495.965779812871	3
1	5495	125499.424498031577	2
1	5503	125538.318886580581	1
1	5519	125976.920237748638	2
1	5522	126023.502416894772	3
1	5532	126177.149204528595	2
1	5538	126177.268715329672	3
1	5541	126251.960263872042	4
1	5543	126294.541749904593	3
1	5548	126637.015821680229	2
1	5553	126796.290424995055	1
1	5566	126936.170791444073	0
1	5572	127082.068025969861	1
1	5589	127672.642688114857	0
1	5740	131306.153298991865	1
1	5743	131379.650626488722	2
1	5749	131652.481240334817	3
1	5757	132011.595128168376	2
1	5765	132277.667605930583	1
1	5774	132405.831800448069	2
1	5777	132433.693325364246	3
1	5782	132557.760053670923	2
1	5787	132575.76666353907	1
1	5792	132770.014086839767	0
1	5831	133286.247299130481	1
1	5838	133394.387111426397	2
1	5844	133609.867051029296	3
1	5850	133726.98201499509	4
1	5853	133878.120704047918	5
1	5860	133962.149035380087	6
1	5863	134059.278406127201	7
1	5865	134090.942099013324	6
1	5870	134105.114682202074	5
1	5876	134221.170232913573	6
1	5884	134420.180007060083	5
1	5899	134804.384286448153	4
1	5917	135262.220954450737	3
1	5926	135328.441890158537	2
1	5932	135356.244450195938	3
1	5942	135525.882619824193	4
1	5949	135695.503449842496	5
1	5952	135776.548979584184	6
1	5954	135779.467012918579	5
1	5964	135788.440903543771	6
1	5967	135852.113138182159	7
1	5970	136051.267823756355	8
1	5980	136371.660014310726	9
1	5982	136406.542626845609	8
1	5987	136451.612508863004	7
1	5992	136616.379675294119	6
1	6011	136919.537378911885	5
1	6020	137320.083403049927	4
1	6026	137344.785467546083	5
1	6032	137623.546565936672	4
1	6038	137884.004888831664	5
1	6043	138037.401004814568	4
1	6049	138088.978210278904	5
1	6055	138208.477595674764	4
1	6064	138289.510676140743	3
1	6073	138590.841677913236	2
1	6079	138768.0445127134	3
1	6093	139187.728441686328	2
1	6098	139331.4771588126	1
1	6106	139533.068121624204	0
1	6219	142086.954501625525	1
1	6221	142147.801900971796	0
1	6227	142314.75371840901	1
1	6237	142435.992184854006	2
1	6243	142467.933520999114	3
1	6245	142512.194312173348	2
1	6257	142898.233473091581	1
1	6262	143013.382429991672	0
1	6268	143080.381309839223	1
1	6278	143488.334323959402	2
1	6280	143539.190190150809	1
1	6293	143607.471243050314	2
1	6299	143788.922069613006	1
1	6308	143962.14340390319	2
1	6316	144105.224244463081	1
1	6325	144424.204209228241	0
1	6331	144481.838863519293	1
1	6336	144546.246855985489	0
1	6381	145177.555114423757	1
1	6387	145189.870111877214	0
1	6393	145227.355784442209	1
1	6399	145346.628242289565	2
1	6402	145420.389460622305	3
1	6405	145546.639874184338	4
1	6407	145573.853522711628	3
1	6413	145604.91883746397	4
1	6415	145670.448300427581	3
1	6425	145939.764201507663	4
1	6431	146030.069382523129	3
1	6440	146098.475373461958	2
1	6449	146483.55382553191	1
1	6455	146547.541043459664	2
1	6461	146602.634730545705	3
1	6463	146777.812794833639	2
1	6472	146845.900004745404	1
1	6477	147001.584705794346	0
1	6487	147152.852364201904	1
1	6493	147216.800555771972	0
1	6580	150017.018329304767	1
1	6582	150328.045250675642	0
1	6667	152805.599958439584	1
1	6669	152924.838446834949	0
1	6781	155327.742584402229	1
1	6787	155605.331914379194	2
1	6789	155676.101915417269	1
1	6795	155967.416735690131	2
1	6797	155969.978171853696	1
1	6802	156115.189974402037	0
1	6830	156596.073480821925	1
1	6832	156657.29060321118	0
1	6838	156719.776852957054	1
1	6849	156812.164335836416	2
1	6851	156835.804405013447	1
1	6866	157013.833498126432	0
1	6875	157133.440529520215	1
1	6884	157573.834700743627	0
1	6914	158226.505932044747	1
1	6919	158308.854368800645	0
1	6929	158491.387334369751	1
1	6945	159221.75283392049	0
1	7072	163395.344891059958	1
1	7077	163611.785441086371	0
1	7177	166357.230329306962	1
1	7179	166508.870937113841	0
1	7188	166674.373079505269	1
1	7195	166897.432951153452	2
1	7200	167091.52766116232	1
1	7215	167500.678593155183	2
1	7220	167717.496795585798	1
1	7225	167719.421148464264	0
1	7262	168500.846576740439	1
1	7269	168548.646590899608	2
1	7272	168570.187871301011	3
1	7274	168612.290393762471	2
1	7287	169226.945464328351	1
1	7292	169321.99125594105	0
1	7432	172855.72808618558	1
1	7435	172910.737164447994	2
1	7438	172972.528403147584	3
1	7441	172997.035239665983	4
1	7446	173270.444741682632	3
1	7451	173489.039024693175	2
1	7457	173514.892350690994	3
1	7462	173554.558717683047	2
1	7468	173575.527769690469	3
1	7471	173820.789305841604	4
1	7477	173916.914806374548	5
1	7480	173930.628336995035	6
1	7494	174200.202874344973	5
1	7502	174424.834533083468	4
1	7514	174593.804963180347	3
1	7520	174871.112483553518	4
1	7522	174914.24016517596	3
1	7536	175156.183469473535	4
1	7538	175212.137387843087	3
1	7543	175268.735966678261	2
1	7549	175414.212455969875	3
1	7558	175848.10325892569	2
1	7563	175949.33807772699	1
1	7568	176048.327249154001	0
1	7741	181352.47552661729	1
1	7744	181391.877887111749	2
1	7747	181522.334409902167	3
1	7752	181727.416538981886	2
1	7757	181785.103138281958	1
1	7765	181900.268037157343	0
1	7771	181977.069362039142	1
1	7773	182052.107941279857	0
1	7782	182311.469930507868	1
1	7789	182470.631574290286	2
1	7807	182860.117267795845	3
1	7809	182881.309155594767	2
1	7814	182932.889613850968	1
1	7823	183036.222589830244	2
1	7825	183052.010115789415	1
1	7844	183354.377039273669	2
1	7850	183608.272210587485	1
1	7855	183632.727519568982	0
1	7864	183636.439315584183	1
1	7867	183642.635499446704	2
1	7878	183957.199714861113	3
1	7880	183982.871842203871	2
1	7902	184676.493644164776	3
1	7904	184714.368394188748	2
1	7909	184719.212283284398	1
1	7915	184738.952079098968	2
1	7939	185067.225063481886	3
1	7941	185074.19464646487	2
1	7947	185125.714407785144	3
1	7952	185190.750610450952	2
1	7958	185273.679583150987	3
1	7968	185375.76495799049	4
1	7971	185744.943636109263	5
1	7973	185826.291007505895	4
1	7979	185887.021393770933	5
1	7991	186163.445327016263	4
1	7996	186171.137520072045	3
1	8002	186208.360878390149	4
1	8004	186498.789066042916	3
1	8009	186587.422894133464	2
1	8014	186683.110521522402	3
1	8022	186749.148587500523	4
1	8029	186794.38657036065	5
1	8031	186973.029276220797	4
1	8056	187507.361342646205	5
1	8061	187606.232291314916	4
1	8072	187812.321100409137	3
1	8080	187966.01630603543	2
1	8086	188015.817734118563	3
1	8101	188310.581134278234	4
1	8115	188534.325082925169	5
1	8121	188588.489403496234	4
1	8126	188790.128431463779	3
1	8132	188807.146519263296	4
1	8134	188816.827466997312	3
1	8140	188816.973366875335	4
1	8143	188853.676946976239	5
1	8146	188863.338489801437	6
1	8152	189061.009493898507	7
1	8159	189083.760842389872	8
1	8168	189264.775842018042	9
1	8173	189372.932275539474	8
1	8187	189730.91995620774	9
1	8190	189752.068769042799	10
1	8199	190004.524824893771	9
1	8207	190230.152409630061	8
1	8218	190445.428543916898	7
1	8231	190565.731131170348	8
1	8240	190701.748936461495	7
1	8250	190916.394981043118	8
1	8253	190962.802687516233	9
1	8256	190983.500899805181	10
1	8261	191027.056214916258	9
1	8273	191161.726845667692	8
1	8286	191526.102062230811	9
1	8289	191550.376416734606	10
1	8291	191610.056545412333	9
1	8297	191715.006045671814	10
1	8299	191739.224486524449	9
1	8308	191764.76195065956	8
1	8314	191851.608229291947	9
1	8323	191932.306803171446	10
1	8340	192385.71693242967	9
1	8345	192405.483852286102	8
1	8351	192553.709907393266	9
1	8354	192573.921356676645	10
1	8368	192903.766645026314	11
1	8371	192912.788875596888	12
1	8377	193012.474225828669	13
1	8385	193151.656651109622	12
1	8391	193261.445038148845	13
1	8393	193273.96283181964	12
1	8401	193423.586118777277	11
1	8409	193641.441568764596	10
1	8419	193708.961336281133	11
1	8426	193974.013027107424	12
1	8446	194358.677089238966	13
1	8448	194394.681862924458	12
1	8453	194455.310184999364	11
1	8459	194455.667926622758	12
1	8461	194470.577216794879	11
1	8467	194504.108545217806	12
1	8470	194534.646976583134	13
1	8479	194736.156492526381	12
1	8485	194835.013827823968	13
1	8492	194856.682279505917	14
1	8506	195793.058390095867	15
1	8508	195853.871198563115	14
1	8513	195946.722810954782	13
1	8518	195951.627695424647	12
1	8523	196132.403723881318	11
1	8542	196597.534196485044	10
1	8551	196663.678646675787	11
1	8565	196965.241039592723	12
1	8578	197111.030603911243	13
1	8580	197240.475798907685	12
1	8585	197330.216523012311	11
1	8590	197499.734016176983	10
1	8595	197604.135083245324	9
1	8612	197795.831415549925	10
1	8615	197865.311816730741	11
1	8618	198006.977183104523	12
1	8631	198274.404813120812	11
1	8639	198449.797975203949	10
1	8648	198515.272777850183	11
1	8650	198698.869719015599	10
1	8656	198722.724758470312	11
1	8668	198957.168719029265	10
1	8674	199010.994576419113	11
1	8681	199088.722064961275	12
1	8683	199169.098569058809	11
1	8692	199547.07005652988	10
1	8707	199766.806474268647	9
1	8713	199776.942945342967	10
1	8716	199876.935375921651	11
1	8722	199925.794413336292	10
1	8728	199961.384491926889	11
1	8730	199962.353046133179	10
1	8739	200035.517274338933	11
1	8745	200399.986556604669	10
1	8751	200451.393469372829	11
1	8757	200516.936450792687	10
1	8784	201143.773217033549	11
1	8793	201329.594335190017	10
1	8799	201355.112556491695	11
1	8804	201585.120312538669	10
1	8810	201631.706443885266	11
1	8812	201672.49871478805	10
1	8824	201902.218723517122	9
1	8834	202159.288099336988	10
1	8844	202656.795876756982	9
1	8849	202694.18414379859	8
1	8855	202816.431994650927	9
1	8857	202947.85753768589	8
1	8870	203197.978497741205	9
1	8872	203381.06919069423	8
1	8877	203429.016158389092	7
1	8883	203445.50820770021	8
1	8899	203693.845689086915	7
1	8909	204022.816860773892	8
1	8911	204057.203767266289	7
1	8916	204059.179149434898	6
1	8929	204302.625871309122	7
1	8939	204619.524317678013	8
1	8948	204886.54361701219	7
1	8953	204901.565723851995	6
1	8968	205065.616628562097	5
1	8973	205107.099900985301	4
1	8979	205115.450489628747	5
1	8990	205412.89067829138	6
1	8993	205419.387372427928	7
1	9009	205704.291745428809	8
1	9012	205722.498782138733	9
1	9021	206058.42431679757	8
1	9027	206211.117957531204	9
1	9029	206257.159684082704	8
1	9034	206296.506286949848	7
1	9043	206322.25008455334	8
1	9046	206407.22298477436	9
1	9049	206422.087057585721	10
1	9051	206509.441744959654	9
1	9064	206760.138234267176	8
1	9080	207227.531944303514	7
1	9086	207333.265204899005	8
1	9093	207379.063883082736	9
1	9095	207495.181306150021	8
1	9100	207755.642839732577	7
1	9113	208110.181090892033	6
1	9122	208431.882246559651	5
1	9133	208865.826739385935	4
1	9151	209071.763294054867	3
1	9164	209414.228992827483	4
1	9166	209425.813310720955	3
1	9179	209577.051757102522	4
1	9189	210020.171727029293	5
1	9191	210058.12607087584	4
1	9201	210171.982532535864	5
1	9207	210292.874926876386	6
1	9209	210353.39668878934	5
1	9215	210415.320413840657	6
1	9218	210442.998220161241	7
1	9220	210449.453380105083	6
1	9225	210689.383611031548	5
1	9230	210740.920419119464	4
1	9235	210762.279347283618	5
1	9246	210847.366919952522	6
1	9256	210988.998646909582	5
1	9272	211660.571219263764	4
1	9277	211764.164820494802	3
1	9289	212067.247843944465	2
1	9298	212211.760137003126	1
1	9307	212286.525261043055	2
1	9310	212372.615175840398	3
1	9316	212393.428479198506	4
1	9336	212967.626760271118	3
1	9341	213226.37722414376	2
1	9354	213460.254522694873	3
1	9359	213582.486591168677	2
1	9369	213683.110294630489	3
1	9371	213690.777685601475	2
1	9377	213850.553210483278	3
1	9390	214194.435166607961	4
1	9393	214425.321379402671	5
1	9399	214441.894171689377	4
1	9408	214555.107294630353	5
1	9411	214582.978679782172	6
1	9416	214733.566923398735	5
1	9421	214853.913051108064	4
1	9430	214931.577238743059	5
1	9432	215189.339610130524	4
1	9445	215520.807324912565	3
1	9451	215616.59061711972	4
1	9458	215721.982065376392	5
1	9468	215888.829971397967	4
1	9483	216318.540434954899	3
1	9488	216441.887282965871	2
1	9494	216481.813960611857	3
1	9497	216519.414872818769	4
1	9499	216546.572538667356	3
1	9516	216915.941336391317	4
1	9518	217124.633779175746	3
1	9530	217425.349726580294	2
1	9539	217461.200596927405	1
1	9547	217683.560946925541	0
1	9553	217835.325563904894	1
1	9571	218330.994021773915	2
1	9576	218394.385299798268	1
1	9589	218770.250968233909	2
1	9592	218821.747548494149	3
1	9597	218899.975706960072	2
1	9602	218947.555079046848	1
1	9608	219018.415867971483	2
1	9610	219110.905776587055	1
1	9622	219548.836992684919	0
1	9631	219787.843386968316	1
1	9638	219836.230754768878	2
1	9648	220139.171548601911	1
1	9656	220272.813120674509	0
1	9696	220923.736452969675	1
1	9699	221076.511503263906	2
1	9704	221139.927777242083	1
1	9717	221670.666275673633	2
1	9719	221753.049202817232	1
1	9727	221824.846091018751	0
1	9737	222118.166037701158	1
1	9740	222187.340878882842	2
1	9742	222273.87751233222	1
1	9747	222324.63194355059	0
1	9861	225176.652836627478	1
1	9864	225452.398264771217	2
1	9873	225717.461664970167	1
1	9878	225924.539401116434	0
1	9884	226005.752158883641	1
1	9886	226252.797147432333	0
1	9892	226260.956218072218	1
1	9894	226488.63326411418	0
1	9964	227617.529276678333	1
1	9978	227821.409073138056	2
1	9980	227868.609966642255	1
1	9989	228039.03609044235	2
1	10000	228159.497837156353	3
1	10003	228200.245275830587	4
1	10005	228344.842518502215	3
1	10010	228415.58657150886	2
1	10015	228559.349141032226	1
1	10020	228603.339284646357	0
1	10038	229164.222581543414	1
1	10041	229170.099138266405	2
1	10047	229406.997362383941	1
1	10052	229490.771631751932	0
1	10224	235168.253966143633	1
1	10226	235201.661093650121	0
1	10242	235543.989801543658	1
1	10244	235732.230421788235	0
1	10250	235850.219235675868	1
1	10252	235885.000356731801	0
1	10304	236331.547929194147	1
1	10307	236511.50022418251	2
1	10310	236511.905221120327	3
1	10313	236566.09589361341	4
1	10316	236634.231192277376	5
1	10321	236667.888865442191	4
1	10327	236682.046878523441	5
1	10337	237053.834862874686	4
1	10342	237071.108479522656	3
1	10347	237136.037119803729	2
1	10353	237535.625932348118	3
1	10377	237955.10652548558	2
1	10382	238033.79636410424	1
1	10399	238327.831369974256	2
1	10407	238570.96759864107	1
1	10412	238578.286344348009	0
1	10418	238620.155479734214	1
1	10421	238788.721459567525	2
1	10427	238929.650106893717	1
1	10436	239076.942635098149	2
1	10442	239249.090196835318	3
1	10448	239374.41921033821	2
1	10458	239464.441269225721	3
1	10463	239703.550042314234	2
1	10468	239926.551802162568	1
1	10473	239952.006875553964	0
1	10479	240029.398522367206	1
1	10489	240278.242294834172	0
1	10523	240721.074226006063	1
1	10525	240847.642592736076	0
1	10535	240989.140755275343	1
1	10538	241004.948309754702	2
1	10544	241346.771239125346	1
1	10553	241502.992650771378	0
1	10566	241936.366536913268	1
1	10568	241970.398023062562	0
1	10574	242041.267189912123	1
1	10576	242097.175809609052	0
1	10671	244617.585025475854	1
1	10681	244877.789909979046	2
1	10684	244930.588129684675	3
1	10686	244955.036560235498	2
1	10698	245330.119181082712	3
1	10700	245655.589311103593	2
1	10705	245740.271742394147	1
1	10714	245850.368712483796	0
1	10784	247052.229385838759	1
1	10786	247254.797509069436	0
1	10885	251491.703308837602	1
1	10888	251913.244977833443	2
1	10890	251920.243334706864	1
1	10895	251963.473822901003	0
1	10922	252525.871652180377	1
1	10925	252564.449162731714	2
1	10944	252826.148042684868	1
1	10949	252984.238662721581	0
1	10955	253033.313743301807	1
1	10957	253058.157738734014	0
1	10963	253109.005251000979	1
1	10972	253596.46798675904	0
1	10978	253618.945252076448	1
1	10985	253917.444753125262	2
1	10990	253932.706137167267	1
1	10999	254042.905773098096	0
1	11013	254206.931076527559	1