version 2
run Iteration-89-20200521-09:56:34-72548
attr configname Iteration
attr datetime 20200521-09:56:34
attr experiment Iteration
attr inifile omnetpp.ini
attr iterationvars "$i=12, $j=2, $0=15-(12+2)"
attr iterationvarsf i=12,j=2,15-(12+2)-
attr measurement "$i=12, $j=2, $0=15-(12+2)"
attr network Network
attr processid 72548
attr repetition 0
attr replication #0
attr resultdir results
attr runnumber 89
attr seedset 89
itervar i 12
itervar j 2
param **.resourcePool.amount 12
param **.resourcePool1.amount 2
param **.resourcePool2.amount 15-(12+2)
param **.source.interArrivalTime exponential(6min)
param **.delay.delay uniform(4min,28min)
param **.delay1.delay uniform(10min,28min)
param **.delay2.delay uniform(4min,16min)
param **.allocate.resourceModuleName "\"Network.resourcePool\""
param **.allocate1.resourceModuleName "\"Network.resourcePool1\""
param **.allocate2.resourceModuleName "\"Network.resourcePool2\""
param **.deallocate.resourceModuleName "\"Network.resourcePool\""
param **.deallocate1.resourceModuleName "\"Network.resourcePool1\""
param **.deallocate2.resourceModuleName "\"Network.resourcePool2\""
param **.router.randomGateIndex "uniform(0, 1) > 0.2 ? 0 : 1"

vector 0 Network.allocate queueLength:vector ETV
attr interpolationmode sample-hold
attr title "queue length, vector"
vector 1 Network.allocate1 queueLength:vector ETV
attr interpolationmode sample-hold
attr title "queue length, vector"
vector 2 Network.allocate2 queueLength:vector ETV
attr interpolationmode sample-hold
attr title "queue length, vector"
vector 3 Network.sinkStat lifeTime:vector ETV
attr interpolationmode none
attr title "lifetime of arrived jobs, vector"
attr unit s
vector 4 Network.sink lifeTime:vector ETV
attr interpolationmode none
attr title "lifetime of arrived jobs, vector"
attr unit s
0	0	0	0
1	0	0	0
1	23	1213.662495176928	1
1	32	1552.705199384974	2
1	34	1654.915924304767	1
1	40	1714.429303558852	2
1	46	2143.447269044354	1
1	55	2330.651249163886	2
1	57	2549.944241074516	1
1	67	3099.391480746867	2
1	69	3193.768270454838	1
1	81	3528.721309732317	0
1	86	3633.472208170923	1
1	105	4247.776620603635	0
1	113	4370.78008349589	1
1	123	4566.877783983617	0
1	140	4857.859430368398	1
1	146	5162.375194318776	2
1	149	5184.50508437219	3
1	152	5185.948820849117	4
1	155	5284.38060792204	5
1	163	5457.074176375839	6
1	169	5827.455125222595	7
1	171	5901.456153580456	6
1	176	5923.484848864555	7
1	179	5994.16848839231	8
1	184	6037.391094108715	7
1	200	6218.500507059974	8
1	203	6311.661020403864	9
1	206	6381.262255965217	10
1	209	6503.880641398183	11
1	215	6706.07957549394	12
1	217	6749.741985415711	11
1	221	6766.474274547308	10
1	233	7590.880092663228	9
1	238	7656.798077494726	10
1	254	7996.483907196342	9
1	259	8004.09302385932	10
1	273	8626.886703667354	11
1	276	8717.779959859595	12
1	279	8919.312519202097	13
1	281	8940.119238784208	12
1	286	9077.006235953357	13
1	288	9207.198921778708	12
1	298	9528.367440524834	13
1	303	9560.93249895577	12
1	314	9866.861282073671	13
1	320	10132.701704268331	14
1	333	10431.216521031692	13
1	341	10507.526617313852	14
1	350	10878.060302277763	15
1	358	11091.866458263576	16
1	361	11094.418699893345	17
1	363	11102.683332813575	16
1	371	11474.753475030153	17
1	379	11713.390590519803	18
1	382	11716.719686300157	19
1	388	11917.076233635331	20
1	390	12064.560355871453	19
1	395	12131.602635194656	20
1	410	12746.49163211663	19
1	414	13049.804266338705	18
1	422	13314.254234606541	19
1	438	14108.877823790207	18
1	443	14185.003427143149	19
1	459	14428.74827304995	18
1	464	14439.947572010466	19
1	467	14494.439476940533	20
1	470	14561.052149876375	21
1	487	14912.0825355752	22
1	493	15042.417129038636	23
1	495	15163.417662959218	22
1	500	15224.10858605589	23
1	512	15636.516545076045	24
1	522	15737.190558716192	23
1	526	15900.211317483008	22
1	531	15906.141308150499	23
1	534	16054.38366529929	24
1	542	16257.192441795736	25
1	545	16323.012869031514	26
1	548	16471.119557639378	27
1	551	16489.031112542512	28
1	554	17008.586017332177	29
1	561	17298.6975673507	28
1	565	17518.99105107379	27
1	594	18932.946402281195	26
1	598	18949.271790777802	25
1	608	19065.43915320685	26
1	611	19349.98042846599	27
1	614	19378.679627004508	28
1	617	19534.345516551952	29
1	628	19693.86362914192	30
1	630	19745.579044745773	29
1	646	20417.514534711377	30
1	648	20511.082635242164	29
1	653	20621.837900894942	30
1	655	20829.375137166589	29
1	660	20961.230751282007	30
1	681	21392.008165651604	29
1	689	21612.149530463131	30
1	692	21834.986668693888	31
1	703	22291.223517840142	32
1	705	22298.697003593206	31
1	729	22792.194530740052	30
1	739	23103.329567014169	31
1	742	23146.154819874281	32
1	745	23149.489509114873	33
1	747	23456.368129832208	32
1	757	23797.882584676183	33
1	760	23798.611478096384	34
1	763	23815.768583265291	35
1	766	24158.29836159237	36
1	768	24389.721122804567	35
1	772	24416.411469047561	34
1	790	25210.952753854668	35
1	792	25280.183699402496	34
1	811	25772.090825639673	35
1	813	26067.568578319296	34
1	821	26427.432379309711	35
1	831	26804.792376189962	34
1	836	26984.316577220261	35
1	850	27275.087306918411	36
1	852	27374.986307583421	35
1	862	28031.589740812653	36
1	865	28042.339900138347	37
1	875	28391.716760538057	36
1	880	28498.31238439348	37
1	888	28628.804173431962	36
1	904	29271.647105181126	37
1	909	29386.428994889974	36
1	914	29574.810763469916	37
1	920	29622.704211109729	38
1	931	29769.763308067776	39
1	936	29962.802078464538	38
1	941	29966.207763567997	39
1	946	30155.984971457764	38
1	954	30263.483494590831	39
1	971	30373.43938111749	40
1	974	30536.431390906707	41
1	985	30699.879028968595	42
1	988	30745.815074973397	43
1	996	31022.904732987717	44
1	999	31230.031078402967	45
1	1002	31318.949894126084	46
1	1004	31393.619943037301	45
1	1011	31436.316031386614	44
1	1027	31740.982955243315	45
1	1030	31907.2595512193	46
1	1033	31915.452424855557	47
1	1038	32190.802673045218	46
1	1051	32300.33759710157	47
1	1054	32344.340239989524	48
1	1057	32359.04969265757	49
1	1067	32595.47857455118	48
1	1075	32726.142747191219	49
1	1085	33360.60531716761	48
1	1090	33417.501960761282	49
1	1098	33756.910545635892	50
1	1100	34001.06489526248	49
1	1109	34090.833562472507	48
1	1117	34381.212744042334	49
1	1125	34838.207180290633	50
1	1130	35134.316613871143	49
1	1148	35660.260601512182	50
1	1153	35722.037166766494	49
1	1160	35839.845306213484	48
1	1165	35910.183196470635	49
1	1179	36222.771842997028	50
1	1182	36351.82103097752	51
1	1185	36617.752972027005	52
1	1192	36914.967137919411	51
1	1204	37224.626089000613	50
1	1209	37282.974992293028	51
1	1212	37305.958922279441	52
1	1217	37523.729570274845	51
1	1232	37936.055489882365	50
1	1237	38002.809233522725	51
1	1245	38057.212692201033	52
1	1259	38335.167333347464	53
1	1264	38771.633913078949	52
1	1269	38828.570806933291	53
1	1287	39558.875997673258	52
1	1298	39667.724499262107	53
1	1301	39876.097894739423	54
1	1309	40147.276815015553	55
1	1314	40299.468126333922	54
1	1319	40385.007957721521	55
1	1330	40842.979467758572	56
1	1332	41105.928396267354	55
1	1337	41185.528311737553	56
1	1340	41200.849775868076	57
1	1343	41311.344512044764	58
1	1350	41589.36718025212	57
1	1369	42266.023522113827	58
1	1372	42380.521900569809	59
1	1378	42448.024318797052	58
1	1383	42465.089042195723	57
1	1395	43104.787578126088	56
1	1403	43299.486062372084	57
1	1410	44028.356634445027	56
1	1415	44099.29197019363	57
1	1425	44602.443422078759	56
1	1435	44723.077757418001	57
1	1444	45118.559098785027	58
1	1453	45308.372285756887	57
1	1458	45380.602457664446	56
1	1463	45439.646969650751	57
1	1474	45824.82434318898	58
1	1493	46284.701627586352	59
1	1495	46316.721952762128	58
1	1501	46353.315260667818	59
1	1504	46393.75946030497	60
1	1513	46711.149495189549	59
1	1519	46872.771525675874	60
1	1521	46959.61563682151	59
1	1537	47310.143462919509	60
1	1543	47440.820071644022	61
1	1549	47643.921742701543	62
1	1551	47858.189864113467	61
1	1560	48000.79073581812	60
1	1565	48077.301273796027	61
1	1571	48119.390311283459	62
1	1577	48430.437134486422	63
1	1579	48466.56752964622	62
1	1584	48517.750340002822	63
1	1591	48841.023318823101	62
1	1595	49180.232953654142	61
1	1608	49573.8434194965	62
1	1614	49696.972899147061	63
1	1617	49845.673377579989	64
1	1619	50267.625576136308	63
1	1631	50855.487769424455	62
1	1641	50994.980379541061	63
1	1651	51450.272992169159	62
1	1659	52096.667305010983	63
1	1669	52149.913555729674	62
1	1674	52283.132403364659	63
1	1676	52392.284072106379	62
1	1686	52489.818093129057	63
1	1695	52954.068417240325	64
1	1703	53480.093181318112	65
1	1705	53635.568705005246	64
1	1709	53666.862213715451	63
1	1728	53988.170254610812	64
1	1731	54054.775692526082	65
1	1743	54508.381432891255	66
1	1745	54531.138649407314	65
1	1768	54949.561092080223	64
1	1776	55247.177863863023	65
1	1782	55265.880248391524	66
1	1790	55373.914220211347	67
1	1793	55489.667638916135	68
1	1796	55514.696673001402	69
1	1799	55593.474144905493	70
1	1801	55675.309383423539	69
1	1811	55852.784526662782	70
1	1817	55911.217427328235	71
1	1834	56237.231466571856	72
1	1836	56260.769788510772	71
1	1849	56488.157213259029	72
1	1855	56767.469189633254	73
1	1864	56896.89545091173	74
1	1871	57014.673944388433	75
1	1880	57314.043098388615	76
1	1882	57346.040783525916	75
1	1887	57604.971428848478	74
1	1895	57752.378509730574	75
1	1898	57788.489909882236	76
1	1901	57817.251551351166	77
1	1909	58001.469334962541	78
1	1912	58359.049726801901	79
1	1918	58403.286726254178	80
1	1920	58619.446074198606	79
1	1932	58904.702734920668	78
1	1951	59450.680259627407	79
1	1954	59535.37112330292	80
1	1960	59737.440166968393	79
1	1966	59753.811383475578	80
1	1969	59866.980117127329	81
1	1974	60176.486770305457	80
1	1979	60370.623805892041	81
1	1986	60866.691105627927	80
1	2001	61560.121284667077	79
1	2006	61657.473921123452	80
1	2008	61675.900339252788	79
1	2018	62254.543358197968	80
1	2027	62720.827633692334	81
1	2034	62861.712895612838	80
1	2042	63048.178817007585	81
1	2052	63298.198319954339	80
1	2068	63906.756545065894	81
1	2071	63931.819744658781	82
1	2078	64036.586795350211	83
1	2080	64040.849180519255	82
1	2091	64160.531332773629	81
1	2099	64467.859968286695	82
1	2105	64583.175321265004	83
1	2112	65043.08229869372	82
1	2117	65107.00898406513	83
1	2120	65107.936146812613	84
1	2126	65470.969561124208	85
1	2128	65516.689398735436	84
1	2137	65971.859714995611	83
1	2142	66032.254455070738	84
1	2156	66441.223205894286	85
1	2159	66558.047115492979	86
1	2164	66873.269351785677	85
1	2169	66967.057717408093	86
1	2180	67544.29341893608	87
1	2182	67563.31134218863	86
1	2192	67788.935414440604	85
1	2202	68016.40613464415	86
1	2205	68060.205068557818	87
1	2211	68312.069520258424	88
1	2226	68995.533864311548	87
1	2233	69193.241009015132	86
1	2246	69544.120354546566	87
1	2249	69599.584494751235	88
1	2259	70038.735425108718	87
1	2264	70146.833633034046	88
1	2272	70398.699309668977	87
1	2282	70579.256568127979	88
1	2285	70606.608941134818	89
1	2290	71070.911069467206	88
1	2300	71108.419641229194	89
1	2305	71317.637545112195	88
1	2315	71882.518177191415	89
1	2321	72159.459260741467	90
1	2323	72221.518555433963	89
1	2338	72722.969617051678	88
1	2343	72832.560481453856	89
1	2346	73287.207228842154	90
1	2357	73455.876594078284	91
1	2359	73576.142658601989	90
1	2367	73659.871252174765	91
1	2369	73690.673243710446	90
1	2379	74283.826711872751	91
1	2386	74446.098434591209	90
1	2391	74572.794006888006	91
1	2393	74796.484707314196	90
1	2422	75929.285672767741	91
1	2424	75958.456919910061	90
1	2428	76113.340681168725	89
1	2441	76647.597786453178	90
1	2444	76717.623287861578	91
1	2447	76737.427817880439	92
1	2452	77221.088610581597	91
1	2462	77425.179160149336	92
1	2464	77425.446707857448	91
1	2473	78732.788971578378	90
1	2482	78881.012860239958	89
1	2494	79853.573980165189	88
1	2499	79912.655180200329	89
1	2509	80336.439664065514	88
1	2517	80571.459491253455	89
1	2525	81051.590323963193	90
1	2527	81248.652840852414	89
1	2531	81353.972921791961	88
1	2548	82194.621146276137	87
1	2552	82714.744671741177	86
1	2562	82919.032356503749	87
1	2564	83364.354733572949	86
1	2579	83686.4553961265	85
1	2595	84216.660691246297	86
1	2597	84228.523257961173	85
1	2605	84537.525356304603	86
1	2608	84555.896898726424	87
1	2611	84645.301130699001	88
1	2618	84761.103381860546	87
1	2646	85464.32169264274	88
1	2652	85496.079043567104	89
1	2655	85514.683824977972	90
1	2664	85649.133760552447	91
1	2667	85692.483439855708	92
1	2669	85823.245224989627	91
1	2674	85908.265347474595	92
1	2677	86130.670499224042	93
1	2685	86357.66724095961	94
1	2687	86436.493115677974	93
1	2692	86471.280616189386	94
1	2700	86873.896706715787	95
1	2710	87249.00370595013	94
1	2717	87313.379332350111	93
1	2733	87997.1605066161	94
1	2736	88438.333881926691	95
1	2738	88446.438218652878	94
1	2743	88569.563759221778	95
1	2754	88816.317141065978	96
1	2759	88936.514029997876	95
1	2772	89215.644091044545	96
1	2775	89362.72525462887	97
1	2786	89923.578037303743	98
1	2788	90123.651457968775	97
1	2797	90526.550102356365	96
1	2807	90906.696668830149	97
1	2809	91008.047968092982	96
1	2821	91890.248284889061	95
1	2828	92057.629975938713	94
1	2843	92632.445210246045	93
1	2848	92725.468525990918	94
1	2854	92795.921673520096	95
1	2857	92935.797842952772	96
1	2860	93161.158342229514	97
1	2870	93379.186930965176	96
1	2883	93963.157757752572	97
1	2885	94229.560916050944	96
1	2895	94463.869227029767	97
1	2897	94559.014038668489	96
1	2902	94683.182270977398	97
1	2923	95490.613688844863	96
1	2934	95651.727634330024	97
1	2937	95706.375435931276	98
1	2940	95741.407628570174	99
1	2945	95992.796865060469	98
1	2950	96125.028935799587	99
1	2957	96214.126588357288	98
1	2962	96431.487849844426	99
1	2978	97091.81859119761	100
1	2981	97152.964892009056	101
1	2989	97364.140550084088	100
1	2998	97463.697314757397	99
1	3022	98205.01511492664	100
1	3028	98421.992155309681	101
1	3030	98465.615173400987	100
1	3035	98533.212606740054	101
1	3043	98621.67469081506	102
1	3045	98651.37099451526	101
1	3058	99244.977811318406	102
1	3061	99673.930284650068	103
1	3067	99975.530527652849	102
1	3073	99988.258995333876	103
1	3084	100183.173813029667	102
1	3094	100831.207546596222	103
1	3097	100885.32934566218	104
1	3099	100944.52739840341	103
1	3112	101435.694188128828	104
1	3114	101492.310780353388	103
1	3123	101809.621099326436	102
1	3136	102066.943757511306	103
1	3145	102808.862970482102	102
1	3157	103090.991990509289	103
1	3159	103322.784544489954	102
1	3172	103597.805319618715	103
1	3174	103698.822883592463	102
1	3185	103874.692981267649	103
1	3196	104135.250820441377	104
1	3199	104163.844770272433	105
1	3201	104167.279078075339	104
1	3206	104181.897139666463	105
1	3209	104759.092194746941	106
1	3217	104907.449622797325	107
1	3222	105053.731602496943	106
1	3226	105098.404933157985	105
1	3253	105963.413946506267	106
1	3256	105989.580587924425	107
1	3258	106077.452777858368	106
1	3265	106316.500240806167	105
1	3280	106767.442301820508	104
1	3288	107093.03254338286	105
1	3291	107203.582123725488	106
1	3294	107316.773706892247	107
1	3297	107345.382101631186	108
1	3299	107352.297164136221	107
1	3312	107568.495003397798	108
1	3315	107681.08856878572	109
1	3321	107928.314274853036	110
1	3332	108204.241909203459	111
1	3334	108285.489356584391	110
1	3344	108784.930141353657	109
1	3356	109242.06560948073	108
1	3364	109357.244290119193	109
1	3378	109697.587252417123	110
1	3381	109717.602947362509	111
1	3387	109849.011018592959	112
1	3393	109974.90015280214	113
1	3396	110012.637090591483	114
1	3398	110224.299104967763	113
1	3407	110521.49293911784	112
1	3412	110530.819173929209	113
1	3415	110782.574318875257	114
1	3418	110858.476062468819	115
1	3420	111150.930128573915	114
1	3432	111552.794095938703	113
1	3437	111577.517868567944	114
1	3439	112035.767391688665	113
1	3452	112285.984990295656	114
1	3454	112448.017274355194	113
1	3467	113051.775368562045	114
1	3477	113598.47635065346	113
1	3489	113813.280232008225	112
1	3494	114024.448799672175	113
1	3510	114726.585806870377	112
1	3520	114956.445712366563	113
1	3526	115214.929842474008	114
1	3529	115322.148579659143	115
1	3531	115378.908112225733	114
1	3541	115769.794359833132	115
1	3544	115874.503318626933	116
1	3549	115982.733549691281	115
1	3559	116121.487573854767	116
1	3568	116890.775216233138	117
1	3575	116922.251661494053	116
1	3579	117008.707484408757	115
1	3584	117201.757672499054	116
1	3592	117716.705238129622	115
1	3602	117956.277925767084	116
1	3605	117958.025823129092	117
1	3615	118181.405216931841	116
1	3623	118476.034544644964	117
1	3626	118530.113947700092	118
1	3633	118974.729635426453	117
1	3637	118976.414181321404	116
1	3653	119451.033760904262	117
1	3661	119794.84374821552	118
1	3663	119820.732875234923	117
1	3667	119926.848737885854	116
1	3686	120446.212871172035	117
1	3693	120646.441312152571	116
1	3701	121086.772710534049	117
1	3708	121252.136434960655	116
1	3713	121292.372977383255	117
1	3737	121803.911746209166	116
1	3742	121898.740650896013	117
1	3745	121985.318237956441	118
1	3748	122105.027120910071	119
1	3759	122618.572344496094	120
1	3764	122717.03698031745	119
1	3769	122790.906644237469	120
1	3772	122839.047012919434	121
1	3785	123175.498921470395	120
1	3790	123327.572502504519	121
1	3793	123342.881584932701	122
1	3801	123652.072987595181	123
1	3809	124103.73145991323	124
1	3811	124368.064395311764	123
1	3815	124402.080456725932	122
1	3838	125397.271059175497	121
1	3851	125594.771224812176	122
1	3854	125607.575937100971	123
1	3860	125684.371453336508	124
1	3862	125750.397470285795	123
1	3875	126427.188100123225	124
1	3886	126702.718847831253	125
1	3888	126795.444201427987	124
1	3901	127136.737646646477	123
1	3914	127495.374763553102	124
1	3917	127534.698707111626	125
1	3920	127838.216106560015	126
1	3922	128026.723404517077	125
1	3931	128069.862418222716	124
1	3936	128494.648589558302	125
1	3942	128673.409620263441	126
1	3945	128723.610544999259	127
1	3950	128945.637154552629	126
1	3963	129207.20436957855	127
1	3965	129240.69943934647	126
1	3975	129707.000034191008	127
1	3980	129863.046959761074	126
1	3995	130383.678221217968	125
1	4000	130484.60450330482	126
1	4003	130513.791568964686	127
1	4009	130723.31412874045	128
1	4016	130983.168779762006	127
1	4035	131357.408717110017	128
1	4038	131487.940955763717	129
1	4043	131607.112848992935	128
1	4048	131682.274082014361	129
1	4050	131720.788068649971	128
1	4055	131874.922696985982	129
1	4068	132226.03802043154	128
1	4073	132231.445932765103	129
1	4078	132852.231307075971	128
1	4082	132989.002760873652	127
1	4095	133095.723859340046	128
1	4098	133220.791211411518	129
1	4101	133272.883962692289	130
1	4118	133822.70974344051	131
1	4121	133978.827636961838	132
1	4123	133993.922116068668	131
1	4128	134057.139296192166	132
1	4131	134175.788795842676	133
1	4134	134291.19977653781	134
1	4136	134311.395904365608	133
1	4145	134988.413527171604	132
1	4155	135483.920402312332	131
1	4164	135665.007252238236	130
1	4178	136081.273673997341	131
1	4181	136152.281604444616	132
1	4189	136453.696330116607	131
1	4194	136461.622831246892	132
1	4205	136672.110140965755	133
1	4208	136709.208373283432	134
1	4214	137076.761447187646	135
1	4217	137125.377771863403	136
1	4219	137159.396819928342	135
1	4235	137508.764128658226	136
1	4238	137598.039438898357	137
1	4240	137785.780583956756	136
1	4255	138012.738076550567	135
1	4263	138268.462643259315	136
1	4271	138383.36115414168	137
1	4277	138556.631400083441	138
1	4288	139125.896598393178	139
1	4290	139289.411939905502	138
1	4295	139306.035518749479	139
1	4303	139616.591425998656	140
1	4305	139621.11232770575	139
1	4321	140021.55964815838	140
1	4333	140300.578108142833	141
1	4339	140624.422929783153	142
1	4346	140790.041370123171	141
1	4354	140869.16553538026	142
1	4356	140902.844384833852	141
1	4367	141119.072075956768	142
1	4373	141235.758515940157	143
1	4376	141387.652731338105	144
1	4378	141393.171393379115	143
1	4388	141659.782648373354	144
1	4396	141849.915155190656	143
1	4401	141853.968072874211	144
1	4416	142153.692169073077	145
1	4419	142342.24415488716	146
1	4422	142415.815182914692	147
1	4432	142500.214341954805	146
1	4437	142525.309639837968	147
1	4446	142622.665411860858	148
1	4449	142941.232259922941	149
1	4451	142995.178494425172	148
1	4456	143042.199014009629	149
1	4462	143267.16340161382	150
1	4470	143404.797782802349	151
1	4476	143866.426502064727	152
1	4478	143926.34552887609	151
1	4482	143940.121438337036	150
1	4490	144032.892799234101	151
1	4493	144038.756123951131	152
1	4504	144417.141622751567	153
1	4507	144636.145549025016	154
1	4520	145034.706489313075	153
1	4524	145150.494581071206	152
1	4534	145301.6649577438	153
1	4542	145746.37985110251	152
1	4547	145920.07963998887	153
1	4555	146293.981895021421	154
1	4568	146655.866730736115	153
1	4572	146656.970200994664	152
1	4580	146719.663633654203	153
1	4583	146931.285410598454	154
1	4586	147009.145043943608	155
1	4596	147290.134929494479	154
1	4604	147372.207832028041	155
1	4607	147474.314856000809	156
1	4610	147746.37786237873	157
1	4616	147880.439552935983	158
1	4626	148272.001383956203	157
1	4635	148532.250579345518	156
1	4640	149086.069341936285	157
1	4643	149091.066950621891	158
1	4653	149317.093115802536	157
1	4663	150107.107661181238	158
1	4668	150199.756422612363	157
1	4694	150919.651996167058	156
1	4698	150956.294067307854	155
1	4706	151110.946565836371	156
1	4712	151468.284672791289	157
1	4725	151597.978250812421	156
1	4730	151634.07851559489	157
1	4733	151866.886937393455	158
1	4741	152000.110777451719	159
1	4750	152239.61105597046	160
1	4752	152382.873095266068	159
1	4762	152535.405550739422	160
1	4770	152766.577289612598	161
1	4779	153088.788737437657	162
1	4781	153113.686372601906	161
1	4786	153231.271719991516	162
1	4789	153234.831729171531	163
1	4791	153262.022472340296	162
1	4796	153346.004325621026	163
1	4804	153757.267368074521	164
1	4819	154786.125339885721	163
1	4823	154813.003428885396	162
1	4834	155360.426648593639	163
1	4845	155497.94773775296	164
1	4850	155647.929701907243	163
1	4858	156210.880919719213	164
1	4865	156287.619461651439	163
1	4869	156291.261834352891	162
1	4874	156607.401359075521	163
1	4877	156625.770998613429	164
1	4880	156641.994252549631	165
1	4902	157171.721293480614	164
1	4907	157185.036852640217	165
1	4915	157827.401698602365	166
1	4923	157919.666929384376	165
1	4938	158248.327666298965	164
1	4943	158347.366756840478	165
1	4946	158483.223707077344	166
1	4949	158545.352544729399	167
1	4952	158583.29249638795	168
1	4955	158605.050292722386	169
1	4963	158804.044811762707	170
1	4965	158885.346038508843	169
1	4973	158959.86052215097	170
1	4984	159520.126571980447	171
1	4986	159581.836625497336	170
1	4999	160221.983793104051	171
1	5001	160291.1529655472	170
1	5014	160605.900625895257	169
1	5019	160740.212829261621	170
1	5022	160862.445277999714	171
1	5030	160896.59539318133	172
1	5032	161010.141637939643	171
1	5053	161920.513831682384	172
1	5055	162081.562242686297	171
1	5059	162141.214869068619	170
1	5070	162532.932074273689	171
1	5076	162564.561414358584	172
1	5083	162830.840562274363	171
1	5090	163217.169146166663	170
1	5095	163304.121605388121	171
1	5109	163693.627299830017	172
1	5112	163847.275285631553	173
1	5115	163891.367357260594	174
1	5122	164227.612178986576	173
1	5134	164508.040781814154	172
1	5139	164580.09324282008	173
1	5145	164764.631433635642	174
1	5162	165104.375295711856	175
1	5165	165120.447867110021	176
1	5167	165253.71141318373	175
1	5179	165524.241756396052	174
1	5187	165727.392746062934	175
1	5198	165978.559475357738	176
1	5203	166132.452524240609	175
1	5211	166341.604507540978	176
1	5220	166497.667335978137	177
1	5223	166587.557486008984	178
1	5226	166713.410777650801	179
1	5233	166876.265795688625	178
1	5238	166900.586414003117	179
1	5241	166910.595821439348	180
1	5243	167016.974016111028	179
1	5251	167072.928350313851	180
1	5262	167597.916629832881	181
1	5268	167931.952432655427	182
1	5278	168415.466070809882	181
1	5283	168430.268468539206	182
1	5285	168468.935004062635	181
1	5304	168916.009526163896	182
1	5307	169063.554480040308	183
1	5309	169295.76370634107	182
1	5319	169476.734347885024	181
1	5327	169544.511906592075	182
1	5338	169826.738964136125	183
1	5347	170070.247042708144	184
1	5350	170083.657147649009	185
1	5356	170218.629244734596	186
1	5359	170417.404805105116	187
1	5362	170421.895726509364	188
1	5373	170681.092008707425	189
1	5375	170765.840364992303	188
1	5379	170808.222692666125	187
1	5384	170948.237388415942	188
1	5387	171189.22624659637	189
1	5390	171413.710379391973	190
1	5397	171902.732090234306	189
1	5406	172389.636353309882	188
1	5415	172873.113301444348	187
1	5433	173542.483888009112	186
1	5440	173721.213809707818	185
1	5448	174010.531503663928	186
1	5462	174325.697264255908	187
1	5465	174355.857456022008	188
1	5475	174594.135718300488	187
1	5483	174651.421737710129	188
1	5485	174671.975887994898	187
1	5490	174894.266034479902	188
1	5498	175113.641350188164	189
1	5501	175395.802750853013	190
1	5504	175543.11320085612	191
1	5517	175749.136292710585	190
1	5522	175854.446116091948	191
1	5524	176058.587427578416	190
1	5542	176696.016973824856	189
1	5547	176782.358477001897	190
1	5550	176896.006998009783	191
1	5556	177044.484585623283	192
1	5559	177249.622567202567	193
1	5561	177484.124566951316	192
1	5565	177548.520297957269	191
1	5575	177716.566600996034	192
1	5587	178475.228964715392	193
1	5594	178607.734961397631	192
1	5601	178746.215315155234	191
1	5609	178979.311339810665	192
1	5612	179036.749303323197	193
1	5618	179147.453939999224	194
1	5629	179257.52492506447	195
1	5631	179366.536393828239	194
1	5636	179590.003344924361	195
1	5639	179604.659217608606	196
1	5644	179765.357824470533	195
1	5657	180461.928660847758	196
1	5659	180542.516073472483	195
1	5669	180759.80703263092	196
1	5671	180772.996789209094	195
1	5687	181554.790937666452	196
1	5690	181855.846058675753	197
1	5692	181921.727200289873	196
1	5704	182146.399328290966	195
1	5714	182526.882228655425	194
1	5733	182952.135519052893	195
1	5740	183261.116054476855	194
1	5745	183297.63855160172	195
1	5751	183481.02428874832	196
1	5754	183537.546321120394	197
1	5756	183671.343471725953	196
1	5761	183767.818916345609	197
1	5768	183882.39929449713	196
1	5773	183909.326594196061	197
1	5776	183928.599963978095	198
1	5783	184761.838115874228	197
1	5791	184961.063474231964	198
1	5793	185085.290590868948	197
1	5821	185839.06318833283	198
1	5823	185985.034884737355	197
1	5834	186237.059844775691	198
1	5841	186409.381789341254	197
1	5846	186527.526535702622	198
1	5849	186554.909693282759	199
1	5852	186618.510243885404	200
1	5855	186668.471543637396	201
1	5858	186697.818482887001	202
1	5861	186854.830985828391	203
1	5863	186875.069752933008	202
1	5876	187327.014126556338	203
1	5883	187888.25623068927	202
1	5887	187897.811191856412	201
1	5892	188353.402987815755	202
1	5894	188555.668734099267	201
1	5914	189157.679748665226	200
1	5933	189950.959472831117	201
1	5935	189987.765456260798	200
1	5947	190178.260651548876	199
1	5955	190390.075025215423	200
1	5961	190551.110311466696	201
1	5969	190585.830725377078	202
1	5972	190603.861191435212	203
1	5975	190695.330129236252	204
1	5978	190816.034915534042	205
1	5981	190910.920649441413	206
1	5986	191213.48827509178	205
1	5990	191489.330391531362	204
1	6015	192500.567340533865	203
1	6020	192534.363483933616	204
1	6026	192828.46052342867	205
1	6032	192962.668780566302	206
1	6037	193014.866584410443	205
1	6053	193161.900840614144	206
1	6066	193627.118118824122	205
1	6071	193666.704935725842	206
1	6074	193696.824951557535	207
1	6077	193801.999916184831	208
1	6079	194066.266647560074	207
1	6087	194170.238508724195	208
1	6095	194543.469714465844	209
1	6098	194642.924370527339	210
1	6101	194652.4015592911	211
1	6103	194703.813041924982	210
1	6115	194892.290369877277	209
1	6125	195879.912072865796	210
1	6127	195915.365533271356	209
1	6142	196255.528239439858	208
1	6154	196919.030191238521	207
1	6162	197043.396215514458	208
1	6173	197298.133836166514	209
1	6176	197387.500163766946	210
1	6178	197408.469177093042	209
1	6190	198062.274171329586	208
1	6195	198088.742048255218	209
1	6198	198114.475090181103	210
1	6203	198523.006759378744	209
1	6213	198682.255941336959	210
1	6226	198931.712475271447	209
1	6242	199395.374002492696	210
1	6248	199646.291611594559	211
1	6256	199882.664953876569	212
1	6258	200017.286755619256	211
1	6267	200148.923918270989	210
1	6281	200568.353722463921	211
1	6284	200610.494954810854	212
1	6295	200783.758275728495	213
1	6301	200920.309215026781	214
1	6304	200934.886995718596	215
1	6307	201204.461688605042	216
1	6310	201479.215268572765	217
1	6317	201578.218740718125	216
1	6321	201723.710995438992	215
1	6326	201825.17174944767	216
1	6345	202624.499594281911	215
1	6350	202746.976695562411	216
1	6356	202880.624352460551	217
1	6358	202935.220825355186	216
1	6366	203114.321881700504	217
1	6377	203265.072673179587	218
1	6380	203320.953066052469	219
1	6382	203582.510194936453	218
1	6387	203867.266936214626	219
1	6389	203917.633855707496	218
1	6398	204631.244574721455	217
1	6406	204796.709246905269	218
1	6416	205056.051535810961	217
1	6426	205382.258559237342	218
1	6433	205892.083459870442	217
1	6438	206111.189271265261	218
1	6445	206411.49697001992	217
1	6457	207105.934209219664	216
1	6461	207333.33717314495	215
1	6466	207370.765257293607	216
1	6487	208269.27938864535	215
1	6495	208401.056406869288	216
1	6503	208649.33517525348	217
1	6505	208714.654873201176	216
1	6510	208868.035978752681	217
1	6512	208919.768596281915	216
1	6520	209470.98271157181	217
1	6530	209657.994261243998	216
1	6535	209856.999189814229	217
1	6542	210316.387382821664	216
1	6555	210919.939448752127	217
1	6562	211207.958287577762	216
1	6569	211351.349836980477	215
1	6588	211713.076485612542	216
1	6597	212015.45285690174	217
1	6600	212171.322669553944	218
1	6606	212340.406419166077	219
1	6617	212416.87394056894	220
1	6620	212443.972963015727	221
1	6622	212653.235465643481	220
1	6626	212665.53741343288	219
1	6631	212921.077988819747	220
1	6634	213054.900739998533	221
1	6641	213370.723935784458	220
1	6652	213850.120598292171	221
1	6659	214012.32382316284	220
1	6669	214322.036044464263	221
1	6671	214630.099345417379	220
1	6676	214723.879220879304	221