version 2
run Iteration-4-20200521-08:30:14-68528
attr configname Iteration
attr datetime 20200521-08:30:14
attr experiment Iteration
attr inifile omnetpp.ini
attr iterationvars "$i=5, $0=10-5"
attr iterationvarsf i=5,10-5-
attr measurement "$i=5, $0=10-5"
attr network Network
attr processid 68528
attr repetition 0
attr replication #0
attr resultdir results
attr runnumber 4
attr seedset 4
itervar i 5
param **.resourcePool.amount 5
param **.resourcePool1.amount 10-5
param **.source.interArrivalTime uniform(5s,15s)
param **.delay.delay uniform(10s,70s)
param **.delay1.delay uniform(20s,40s)
param **.allocate.resourceModuleName "\"Network.resourcePool\""
param **.allocate1.resourceModuleName "\"Network.resourcePool1\""
param **.deallocate.resourceModuleName "\"Network.resourcePool\""
param **.deallocate1.resourceModuleName "\"Network.resourcePool1\""

vector 0 Network.allocate queueLength:vector ETV
attr interpolationmode sample-hold
attr title "queue length, vector"
vector 1 Network.allocate1 queueLength:vector ETV
attr interpolationmode sample-hold
attr title "queue length, vector"
vector 2 Network.sinkStat lifeTime:vector ETV
attr interpolationmode none
attr title "lifetime of arrived jobs, vector"
attr unit s
0	0	0	0
0	87	148.456838070414	1
0	89	150.720849114004	0
0	94	153.546699015423	1
0	96	161.211436847224	2
0	98	162.258985692169	1
0	103	164.351047929376	0
0	108	166.65303738322	1
0	110	167.067098666447	0
0	115	171.843284794594	1
0	120	184.706344637087	2
0	128	196.200363652314	1
0	133	197.472369705792	0
0	138	199.156383085063	1
0	143	204.905868952627	2
0	145	210.562964340205	3
0	147	210.893841485958	2
0	152	217.862294937949	1
0	157	221.570391610729	2
0	159	223.014774201437	1
0	170	231.445515586528	0
0	185	248.358239871448	1
0	190	255.967960660344	2
0	192	257.52140560653	1
0	197	258.177721479441	0
0	205	262.049894526133	1
0	210	269.161700082475	2
0	212	269.666896900161	1
0	220	273.120045035611	0
0	367	409.8972849478	1
0	369	413.176610446533	0
0	518	566.640014681032	1
0	520	568.237694916314	0
0	525	578.480246833058	1
0	527	578.695323166901	0
0	591	646.218432579188	1
0	593	646.256082195322	0
0	651	706.703881348948	1
0	653	708.202577296178	0
0	658	712.828984705265	1
0	666	723.2333312463	0
0	814	861.257208355238	1
0	816	863.420190711041	0
0	858	911.395030578134	1
0	860	911.618395110128	0
0	977	1035.201728763059	1
0	979	1035.272586015055	0
0	1064	1127.447804769035	1
0	1066	1127.472897290718	0
0	1124	1191.045469685923	1
1	0	0	0
1	233	279.815260239411	1
1	235	280.685873758047	0
1	240	281.903481690678	1
1	242	289.081774556543	0
1	247	290.510132554917	1
1	252	301.128212367183	0
2	36	89.455357692204	74.785059308633
2	50	98.662487121763	38.612455511465
2	67	117.140757157468	88.464244226926
2	70	119.377112810034	52.166186193936
2	73	124.777106523979	75.817430894822
2	76	126.355996376369	90.952530195937
2	82	134.382539652288	52.408868488856
2	118	178.452274755109	84.494401197881
2	123	187.862705907318	82.575201354921
2	126	193.07398090139	62.228904697113
2	141	201.392045023385	85.380975552835
2	165	225.12734766351	87.643849020824
2	168	226.29934037337	77.842502302956
2	180	234.253285161685	80.706586146262
2	188	252.529898246284	67.823553609197
2	203	261.517837382852	100.30640053563
2	208	268.851645092945	69.695262007882
2	218	272.757168782408	106.10413139919
2	237	280.685873758047	70.122909417842
2	244	289.081774556543	117.23848976195
2	254	301.128212367183	66.122539569624
2	257	301.149953885469	79.57956227474
2	267	302.419101875274	54.060862003826
2	270	308.623873828909	103.71800487628
2	287	321.735054121818	65.767093461474
2	290	324.862042258027	55.700342175552
2	296	336.476311720906	74.426417194773
2	306	341.978508173486	62.57276725024
2	309	343.640750353221	52.7369582979
2	334	365.493376380761	35.938255586661
2	337	372.531731990164	63.599039693363
2	343	373.937258820512	56.248808843083
2	353	384.672794579526	82.52984136343
2	356	386.095422019714	49.003504696302
2	365	400.924668787045	53.285342818126
2	393	441.51213658042	68.203173382207
2	403	454.551000825593	92.617608308792
2	413	457.615977737585	57.036913530901
2	416	468.797593852503	89.226814047433
2	437	489.250374210531	66.051208288408
2	440	490.128548422362	103.73331460636
2	450	497.352519794365	87.455234846565
2	456	501.744772405362	64.498930582776
2	467	509.877888604532	39.988770945929
2	473	518.611691885161	37.027475484647
2	486	530.225444680545	73.946470096708
2	492	536.655602662357	91.098015788011
2	513	557.11195352487	44.656577347777
2	533	582.248057117684	53.106367760338
2	540	585.519582794512	92.962700324133
2	543	587.343344055114	88.83448081091
2	557	598.530768812633	43.205122281798
2	560	601.274029843041	54.584886808879
2	569	619.518316832835	83.747910256498
2	572	619.882804376536	96.3917930983
2	579	625.585302438119	65.043468950316
2	610	661.565163386984	94.925148705952
2	613	661.739635330157	83.259388497099
2	623	669.804241827222	64.162777531892
2	626	674.443163231479	81.669230395928
2	629	674.971631225198	45.929314740934
2	642	696.132646824698	59.728813678958
2	661	714.048684891313	96.510779499077
2	664	721.838158189783	54.455381967127
2	683	729.648242408875	83.429809829687
2	697	744.303316648583	67.194327306934
2	704	750.216978788375	89.724460104481
2	710	762.825656509957	71.858696239069
2	719	773.825646052136	73.491022884846
2	726	776.918327778111	70.214446429163
2	736	779.77757219225	66.948587486985
2	757	804.423667339142	66.334775658324
2	760	806.150797752199	42.471690210514
2	773	823.355834751857	45.613412922248
2	776	824.816332254559	74.397453414276
2	779	825.349241010844	98.496037716977
2	800	848.527163078544	76.373542160727
2	809	855.685755365995	44.718296881765
2	812	859.598303474487	75.401258370839
2	833	874.479943045882	56.774686612189
2	850	895.091061342974	98.298720945604
2	853	898.684657767883	43.271273570136
2	866	912.465999706183	51.208791350945
2	869	918.062582481654	45.182349774987
2	879	925.844570980408	93.713455991819
2	900	947.369497795591	62.220634850674
2	903	947.880809735508	97.836041105911
2	910	950.611773983111	107.86597435363
2	913	952.536653762219	62.220614203252
2	916	959.538886623924	48.14385604579
2	933	978.870019558819	76.888396018185
2	954	1002.824537307026	83.704792116769
2	957	1003.31422550604	57.597643281334
2	966	1017.82014604658	86.417706497013
2	969	1024.019766214771	54.868028885685
2	975	1032.615485466087	72.539964900352
2	1000	1058.182287847159	75.922179361805
2	1006	1061.598116131501	69.441116270609
2	1019	1075.513513619081	69.652592344209
2	1030	1086.367356027478	51.165627264419
2	1043	1103.505079217722	91.252339947969
2	1046	1109.629947994836	60.518341837451
2	1049	1109.852926835883	48.340873327106
2	1062	1122.88690739777	98.338622241281
2	1090	1149.652195463423	61.807241784409
2	1103	1165.765944242012	69.521726355888
2	1106	1166.178714407142	98.470894019119
2	1109	1170.630463918205	51.465880568139
2	1112	1170.63689658884	95.659266007133
2	1122	1184.633064994123	57.185260225088

