version 2
run Iteration-0-20200521-09:50:53-70324
attr configname Iteration
attr datetime 20200521-09:50:53
attr experiment Iteration
attr inifile omnetpp.ini
attr iterationvars "$i=1, $j=1, $0=15-(1+1)"
attr iterationvarsf i=1,j=1,15-(1+1)-
attr measurement "$i=1, $j=1, $0=15-(1+1)"
attr network Network
attr processid 70324
attr repetition 0
attr replication #0
attr resultdir results
attr runnumber 0
attr seedset 0
itervar i 1
itervar j 1
param **.resourcePool.amount 1
param **.resourcePool1.amount 1
param **.resourcePool2.amount 15-(1+1)
param **.source.interArrivalTime exponential(6min)
param **.delay.delay uniform(4min,28min)
param **.delay1.delay uniform(10min,28min)
param **.delay2.delay uniform(4min,16min)
param **.allocate.resourceModuleName "\"Network.resourcePool\""
param **.allocate1.resourceModuleName "\"Network.resourcePool1\""
param **.allocate2.resourceModuleName "\"Network.resourcePool2\""
param **.deallocate.resourceModuleName "\"Network.resourcePool\""
param **.deallocate1.resourceModuleName "\"Network.resourcePool1\""
param **.deallocate2.resourceModuleName "\"Network.resourcePool2\""
param **.router.randomGateIndex "uniform(0, 1) > 0.2 ? 0 : 1"

vector 0 Network.allocate queueLength:vector ETV
attr interpolationmode sample-hold
attr title "queue length, vector"
vector 1 Network.allocate1 queueLength:vector ETV
attr interpolationmode sample-hold
attr title "queue length, vector"
vector 2 Network.allocate2 queueLength:vector ETV
attr interpolationmode sample-hold
attr title "queue length, vector"
vector 3 Network.sinkStat lifeTime:vector ETV
attr interpolationmode none
attr title "lifetime of arrived jobs, vector"
attr unit s
vector 4 Network.sink lifeTime:vector ETV
attr interpolationmode none
attr title "lifetime of arrived jobs, vector"
attr unit s
0	0	0	0
0	5	609.996561497898	1
0	7	1279.454077844779	2
0	9	1556.387507202773	1
0	14	1611.814405174266	2
0	16	2288.241464687252	3
0	18	2486.618919888564	4
0	24	2838.341233390173	5
0	26	3012.987372329966	6
0	28	3031.829199786036	5
0	33	3220.17428320784	6
0	35	3241.192764081349	7
0	41	3700.279031353741	6
0	45	4434.56118485553	7
0	47	4492.43482205525	6
0	56	4668.361870225841	7
0	58	4903.75959442544	8
0	60	5205.955421469529	9
0	66	5385.549344715252	10
0	68	5872.518870192319	9
0	72	6036.56227985423	10
0	79	6184.730358501571	11
0	81	6192.083570325235	12
0	83	6214.810794735998	11
0	87	6357.412899737112	12
0	102	7491.474074060444	13
0	104	7653.783368426115	12
0	113	8575.778946052045	11
0	117	8875.753946951509	12
0	123	9140.341138579838	13
0	125	9480.309228482396	12
0	129	9549.279157595521	13
0	136	9890.624398695976	12
0	140	10008.36113039603	13
0	142	10285.86160744426	14
0	148	10337.053129817099	13
0	157	11327.852979519606	14
0	159	11328.514722394497	13
0	167	11558.863072250814	14
0	174	11949.474802831859	13
0	178	12094.634809521417	14
0	184	12397.155303541809	15
0	186	12403.983988454204	16
0	188	12501.307316492052	15
0	192	12545.021480297823	16
0	194	12603.39061649837	17
0	196	12944.309420281354	18
0	198	13034.828515828284	19
0	205	13380.265787680851	20
0	207	13630.702437716277	19
0	220	14218.674602397961	20
0	222	14425.506268824804	21
0	228	14852.523666615339	20
0	237	15235.487372833045	19
0	241	15262.99265103477	20
0	243	15644.172938370301	21
0	254	16043.988018817697	22
0	256	16093.678346651941	23
0	262	16435.631437073203	22
0	271	16593.733714976703	23
0	273	16897.727720646666	24
0	275	16911.833656955374	25
0	281	17119.67040884572	26
0	288	17550.907597127112	25
0	296	18723.2892734691	26
0	298	18730.925656403156	25
0	302	19086.176201820349	26
0	309	19203.211352484973	25
0	313	19807.951258378776	24
0	326	20644.642025115641	23
0	334	21015.812327907903	24
0	336	21164.312770680003	25
0	338	21206.416718205286	26
0	345	21610.757306757279	27
0	347	21664.293723688035	28
0	349	21782.496577757152	27
0	357	22206.68244366614	28
0	359	22305.575171406122	27
0	363	22372.287468452644	28
0	370	22991.60686523061	29
0	376	23342.643561526882	30
0	383	23499.613861399444	29
0	387	23745.776733198303	30
0	398	24503.692401483506	31
0	400	24524.330094996057	32
0	406	24858.582353880559	33
0	408	25145.715491319748	32
0	417	25342.510651855397	33
0	419	25414.497739481481	32
0	423	25462.178338602331	33
0	425	25508.278774114368	34
0	427	25668.629780405488	35
0	429	25795.053172582761	36
0	440	26031.085834953671	37
0	446	26795.811225874274	38
0	448	27065.102631370278	37
0	457	27397.475032838734	36
0	461	27697.219467784945	37
0	463	27998.214579294238	38
0	474	28451.346999364646	37
0	478	28719.381167396825	38
0	484	28754.895278427396	39
0	486	29063.737709214116	40
0	488	29094.975082856365	41
0	499	30011.428056838663	40
0	503	30048.707217179855	41
0	510	30713.745171540521	42
0	521	31167.321343179747	43
0	523	31212.498998637052	42
0	527	31240.167501063953	43
0	533	31558.093956169292	44
0	535	31565.40644133572	45
0	537	31630.297252050243	46
0	544	32025.360881010743	45
0	552	32265.964038118949	46
0	554	32476.237020115109	45
0	558	32569.473929692376	46
0	565	33007.417044929548	47
0	567	33105.048494967373	46
0	575	33968.983306917103	45
0	579	34186.468588906864	46
0	586	34495.490057325291	47
0	597	35297.776942583474	46
0	601	35310.434144635198	47
0	607	36409.255541113551	48
0	614	36622.600190996346	49
0	616	36821.61532297239	48
0	629	38006.082560964074	49
0	631	38068.865482541475	48
0	644	38611.214554600615	49
0	646	38714.68232598582	50
0	648	38901.88648677871	49
0	652	39028.075223463341	50
0	658	39592.920885043893	49
0	662	39796.6141854573	50
0	669	40116.244293214524	51
0	671	40366.732099138686	52
0	677	40641.004496805213	53
0	679	40735.345103808367	54
0	681	40830.166376824234	53
0	685	41107.15202764071	54
0	692	41305.654584089036	55
0	694	41537.53227908518	56
0	696	41544.509000370467	57
0	698	41638.778157527302	56
0	702	41773.154977997566	57
0	708	42226.410644212557	58
0	710	42313.045892896806	57
0	714	42348.689947942205	58
0	716	42522.798795114395	59
0	723	42869.253815191961	60
0	725	42970.757651212369	59
0	733	43405.840309965168	58
0	737	43627.934952974096	59
0	739	43662.827144621765	60
0	746	43966.626994754473	61
0	748	44075.366862038826	60
0	752	44255.545709627556	61
0	754	44267.85894023646	62
0	760	44649.102318973695	63
0	767	45029.208178091202	64
0	769	45119.237516283175	65
0	771	45142.395230415021	64
0	779	45585.81525057063	63
0	788	45935.945753652471	64
0	790	45965.869544888591	63
0	794	46580.760482023215	62
0	798	46736.915030253597	63
0	809	47014.142699690254	64
0	811	47051.900160506388	65
0	817	47958.84172733636	66
0	819	47981.67983021096	65
0	828	48409.780436304567	66
0	830	48468.053667520994	67
0	836	48897.398637416518	66
0	840	49191.484151067889	65
0	844	49314.11749183125	66
0	846	49569.687945631879	67
0	848	49665.473972218788	66
0	857	49913.835858243935	67
0	859	50145.734398062086	66
0	872	50592.050257414914	67
0	874	50646.335021084695	68
0	876	50834.568231916524	69
0	878	50846.731474715208	70
0	880	50872.534613067848	71
0	886	51631.238339761949	70
0	895	52330.479475037519	71
0	897	52408.777023735202	70
0	905	52721.623906153	69
0	909	52791.399788409976	70
0	916	53487.938289711929	69
0	929	54060.207261624492	68
0	933	54126.985601495333	69
0	948	54598.333012543531	70
0	950	54840.418798603632	71
0	952	54860.532017643498	72
0	954	55009.564429805657	73
0	956	55089.89454472195	74
0	958	55161.113167407222	75
0	960	55167.843536758765	76
0	962	55235.350359191751	77
0	969	55659.745131502605	76
0	973	55803.578939149897	77
0	975	55956.095495638321	78
0	986	56994.531439464763	79
0	988	57159.130196864463	78
0	992	57321.398489301605	79
0	994	57444.978247317232	78
0	1002	57872.49773075785	79
0	1004	57922.137832673944	78
0	1013	58222.231307672031	79
0	1015	58234.670717264272	78
0	1019	58320.031812995262	79
0	1030	59299.717185123924	80
0	1032	59575.865860769961	81
0	1034	59903.721527005292	80
0	1042	60294.84776906636	81
0	1049	60766.370502756562	82
0	1055	60993.191894958473	81
0	1059	61057.243321980314	82
0	1061	61142.032168410977	83
0	1063	61232.607669131618	84
0	1065	61306.779206585512	85
0	1067	61395.64854335308	86
0	1069	61539.034217814661	85
0	1078	62435.715756436658	86
0	1080	62599.220103691078	85
0	1084	62678.443801505705	86
0	1090	62771.328396524093	87
0	1092	62876.991151216468	88
0	1094	62909.086695614753	89
0	1096	62930.607842264301	90
0	1098	62951.513892626049	91
0	1100	63156.677016136373	92
0	1102	63397.55795666474	93
0	1109	63532.079082646747	94
0	1111	64236.360929938711	93
0	1119	64880.889143623852	94
0	1121	64952.157528344081	95
0	1123	65020.32357558117	94
0	1132	65233.668787859299	95
0	1134	65295.860945018686	94
0	1142	65723.964208609318	95
0	1144	65941.613447210006	96
0	1146	66348.541443737817	97
0	1148	66514.186542103745	96
0	1157	66625.424572132534	97
0	1163	67628.331429878928	96
0	1172	68180.663082520224	95
0	1176	68295.699481627083	96
0	1178	68405.717246280231	97
0	1180	68458.851818121079	98
0	1182	68466.364016820737	99
0	1184	68560.090524977736	100
0	1190	69071.428568988395	101
0	1192	69210.276138844678	102
0	1199	69725.905130426146	101
0	1207	70055.499892959245	102
0	1214	70695.631494219492	103
0	1216	70695.651420901743	104
0	1218	70813.081779512323	103
0	1231	71437.547067618853	104
0	1233	71502.160497042097	103
0	1237	72009.476255248047	102
0	1241	72217.221992733718	103
0	1256	73228.502670298077	102
0	1260	73316.368473787333	103
0	1267	74376.38137365972	104
0	1273	74604.28743712113	103
0	1282	75140.57016907882	104
0	1284	75296.004489431835	103
0	1288	75403.452128564887	104
0	1290	75412.81131683441	105
0	1301	75860.417596895909	106
0	1307	76215.326758618213	105
0	1311	76332.367649433648	106
0	1318	76556.586200949004	107
0	1320	76630.875078646783	108
0	1326	76949.03791481863	109
0	1333	77385.947545054115	108
0	1341	77666.892027278348	109
0	1343	77783.603708133482	110
0	1345	77834.594840659757	111
0	1347	77903.808959362937	112
0	1349	78358.061521818351	113
0	1356	78597.727721999146	112
0	1360	78796.901286083622	113
0	1366	79457.596111141856	114
0	1368	79540.124068216366	115
0	1370	79596.455345554753	116
0	1377	79651.934405076064	115
0	1381	79661.354093402937	116
0	1387	80122.306860835311	117
0	1389	80133.440325797093	118
0	1391	80404.016743520953	117
0	1395	80655.280045311033	118
0	1402	81152.426759751092	119
0	1404	81240.698073102321	120
0	1406	81272.057163075366	121
0	1417	81719.688445734539	120
0	1421	81770.051090889781	121
0	1423	82025.373521628537	120
0	1431	82566.559641952374	119
0	1440	82946.709795186028	120
0	1442	82984.757177863705	121
0	1444	83008.197809186903	122
0	1446	83014.161603178672	123
0	1448	83219.717307421126	122
0	1452	83306.172371180732	123
0	1454	83309.514259956814	124
0	1465	83708.541771473852	125
0	1467	83827.669328697259	126
0	1469	84265.317899106323	127
0	1475	84583.154895290883	128
0	1477	84606.948019140507	129
0	1479	84798.239525514402	128
0	1483	84865.516751979422	129
0	1490	85178.200415307107	130
0	1492	85737.543260114946	129
0	1500	85931.160781451483	130
0	1502	86019.870477448081	131
0	1509	86850.867925691166	130
0	1517	87193.082029234563	131
0	1519	87437.090749974372	132
0	1526	88356.440349700608	131
0	1530	88458.281219589552	132
0	1536	88816.648131201555	133
0	1543	89296.510113808074	132
0	1551	89563.202257917576	133
0	1553	89640.996895891481	134
0	1555	89987.321189463905	135
0	1562	90521.648483217934	136
0	1564	90675.201375551074	137
0	1566	90752.662225845018	136
0	1579	91205.985064278105	135
0	1583	91388.990981208292	136
0	1589	91893.234232114058	137
0	1591	91894.694507789652	138
0	1593	92134.838305706838	137
0	1602	92261.961859453372	138
0	1604	92314.962872886081	139
0	1606	92516.205634082827	140
0	1608	92762.888694028119	139
0	1616	93137.793650790031	140
0	1623	93322.370922136718	141
0	1625	93413.815018342782	142
0	1627	93431.780917416076	141
0	1635	93812.676977435808	140
0	1644	94834.962994664027	141
0	1646	94986.520581961662	142
0	1648	95294.232757757168	141
0	1661	96152.907250045967	142
0	1663	96313.161012232263	143
0	1669	96459.026849875542	144
0	1671	96489.475466909822	145
0	1673	96618.82127275522	146
0	1680	96670.209552305501	145
0	1684	96807.089628071296	146
0	1686	96858.25481217266	147
0	1688	96999.915680176831	148
0	1690	97019.682334295222	149
0	1701	98119.431854737785	150
0	1703	98243.956175367098	149
0	1711	98393.904381055142	150
0	1713	98451.120325731357	151
0	1724	99223.099092956156	152
0	1731	99593.592453631323	151
0	1735	99630.395449293756	152
0	1737	99834.117484282303	153
0	1739	100030.554261598539	154
0	1741	100186.921239900153	153
0	1749	100532.707134453269	154
0	1756	101229.532292517584	153
0	1760	101241.927858066542	154
0	1762	101355.385468404236	155
0	1764	101461.910142773538	156
0	1770	101512.658581162962	157
0	1772	101533.166532851041	158
0	1774	101608.563737156552	157
0	1783	101766.149426306552	158
0	1785	101986.987498559736	159
0	1791	102206.250702476241	160
0	1793	102282.865769932729	159
0	1797	102620.157602066164	160
0	1804	103048.376252546744	161
0	1806	103159.367829817098	160
0	1810	103252.917626693986	161
0	1816	103884.254898902449	162
0	1818	103946.462639788848	161
0	1822	104140.577802527355	162
0	1824	104173.09921039676	163
0	1826	104194.1692540175	164
0	1833	104582.582941077356	165
0	1839	105125.540424463093	166
0	1841	105321.968180606824	165
0	1845	105666.409030198964	166
0	1852	105774.526059101812	167
0	1854	105800.596938743061	168
0	1856	106119.470771313817	169
0	1858	106122.975518676413	170
0	1860	106237.665703912875	171
0	1871	106543.125332775277	170
0	1879	107039.055940111947	171
0	1886	107905.161770763558	170
0	1895	107972.33743927397	171
0	1901	108200.553004810911	172
0	1907	108972.068896965629	173
0	1914	109213.352372532962	174
0	1916	109296.867842632097	173
0	1924	109787.589048924607	172
0	1933	110367.08355119319	173
0	1935	110569.700623847366	174
0	1937	110712.00584891693	173
0	1941	110862.344033874153	174
0	1948	110925.054291608879	175
0	1958	111336.82062809165	176
0	1960	111615.763884713073	177
0	1962	111665.427048207648	178
0	1964	111686.430117557508	177
0	1968	111807.287774108554	178
0	1970	111864.532100156366	179
0	1981	112491.883098589939	178
0	1990	112992.350716393129	179
0	1992	113027.197806424054	180
0	1994	113246.971630623223	181
0	2000	114033.619988816542	180
0	2009	114116.01754560609	181
0	2011	114393.09930119173	180
0	2015	114579.683856633421	181
0	2017	114762.996751905292	182
0	2019	114798.319780051685	183
0	2030	115642.112850739165	184
0	2036	115896.167895490987	183
0	2040	116075.089812917722	184
0	2047	116528.56063434227	185
0	2049	116608.085268060429	184
0	2057	116892.437533057974	185
0	2059	117416.799209225232	186
0	2061	117479.797426583779	187
0	2063	117483.330623687116	188
0	2065	117901.297440114183	187
0	2074	118056.290827892664	188
0	2076	118276.87918804364	189
0	2082	118528.888417045192	190
0	2084	118585.229515204889	189
0	2093	119635.195497247891	190
0	2095	119672.114178729153	191
0	2097	120060.350121888084	190
0	2105	120764.333504792268	191
0	2116	121195.567148434682	190
0	2120	121479.991708536101	191
0	2122	122088.476292249152	192
0	2124	122120.455950004786	193
0	2126	122182.972312759805	194
0	2128	122218.692062293987	195
0	2135	122575.552684367341	196
0	2141	122864.665659251375	195
0	2150	123648.993361004792	196
0	2152	123756.751578675421	197
0	2158	124225.053052560994	198
0	2160	124453.58058634655	197
0	2169	124713.111717547	198
0	2171	124741.539248297675	197
0	2175	124759.038204113978	198
0	2177	124970.27497451878	199
0	2179	125129.090706381452	200
0	2181	125308.086049464795	201
0	2183	125314.012831699302	202
0	2185	125493.270391705199	201
0	2198	125587.240150428807	202
0	2200	126000.004939022227	201
0	2208	126540.947924831665	202
0	2215	126879.168639742403	203
0	2221	127219.593963506385	202
0	2225	127612.234547160316	203
0	2227	127632.967997214457	204
0	2229	127775.371613356729	205
0	2231	127807.954302610113	206
0	2233	127903.330880159587	207
0	2235	128000.791660824992	208
0	2237	128113.587818140849	207
0	2246	128343.915774600774	208
0	2248	128349.578259159754	209
0	2250	128608.65042232762	210
0	2252	128810.2534367267	211
0	2263	129188.016616460413	212
0	2265	129199.898051080698	213
0	2271	129289.880345074612	214
0	2273	129394.980930896978	215
0	2275	129562.486496376559	214
0	2279	129925.772931819094	215
0	2281	129991.206034342512	214
0	2290	130095.681443416984	215
0	2292	130248.538195746704	214
0	2305	131379.149775537416	213
0	2309	131534.804295036192	214
0	2311	131551.628859660951	215
0	2317	131740.999946134602	216
0	2319	131805.035578962891	217
0	2321	132446.172061923823	218
0	2328	132812.730390294351	219
0	2330	133045.246584336027	218
0	2334	133180.548995361788	219
0	2336	133345.799049257261	220
0	2338	133370.111345733012	221
0	2344	133505.133645255773	222
0	2346	134087.851629166834	223
0	2348	134210.337028227687	224
0	2350	134236.635624803345	225
0	2357	134336.105494257255	226
0	2359	134508.622064271263	227
0	2361	134610.302880576266	228
0	2363	134709.996660011574	227
0	2367	134972.078871837745	228
0	2378	135908.833784381613	227
0	2382	135913.709607509724	228
0	2388	136204.942297757521	229
0	2390	136326.746900489042	230
0	2392	136865.490073556766	229
0	2396	136949.229970054809	230
0	2403	137431.729316367461	231
0	2405	137592.699681302526	232
0	2411	138122.957652392552	231
0	2424	138842.131910295285	232
0	2426	138885.909855435357	231
0	2430	139325.259017121021	232
0	2432	139460.892721968458	231
0	2436	139539.880898023875	232
0	2443	140202.760605322883	231
0	2451	140536.772911845544	232
0	2458	141787.000965970475	233
0	2460	141861.86826508002	232
0	2468	142528.909287820325	231
0	2472	142605.535545978029	232
0	2479	142705.065723933633	233
0	2481	142745.365758745421	234
0	2483	142987.423603479049	235
0	2498	144072.812181466027	236
0	2500	144197.405479433701	235
0	2504	144247.959071778994	236
0	2511	144521.438626530335	235
0	2519	145142.786262143913	236
0	2521	145257.285898412636	237
0	2523	145308.586958846823	238
0	2525	145480.132654396964	239
0	2527	145648.899103387042	240
0	2534	145817.695239413071	241
0	2536	146031.115734907553	240
0	2540	146228.021585812305	241
0	2546	146613.558163004682	240
0	2555	146799.470188501599	241
0	2557	146930.178570967898	242
0	2563	147579.222560631797	241
0	2567	147711.819888255417	242
0	2574	147809.549076170009	243
0	2576	148101.326609155587	244
0	2578	148325.916172521875	243
0	2586	148856.101678604946	242
0	2590	149129.999734369364	243
0	2597	149857.050155528298	244
0	2599	149885.969176660047	243
0	2603	150011.458416406072	244
0	2605	150020.432530868043	245
0	2616	150453.353174963293	246
0	2622	151207.070580865012	245
0	2631	152097.693802336918	244
0	2639	152319.99976725512	245
0	2641	152721.204730672902	246
0	2643	152780.710215108368	247
0	2645	152994.309219682194	248
0	2647	153188.85419081888	249
0	2649	153218.611523690389	248
0	2658	153617.607514041672	249
0	2660	153647.668159338401	248
0	2664	153655.550120810006	249
0	2675	154438.911763611005	248
0	2679	154706.704634050594	247
0	2683	154816.663910947975	248
0	2698	155734.218885297642	247
0	2707	156217.391543494717	248
0	2713	156529.616670273749	249
0	2724	157265.554950828419	248
0	2733	157868.603662197522	249
0	2739	157971.40847357864	250
0	2741	158225.190229273887	251
0	2743	158669.102171072055	252
0	2750	158802.883842810088	253
0	2752	158902.463059569464	252
0	2765	159613.781276035741	253
0	2767	159759.84275982783	254
0	2769	159898.420504177676	253
0	2773	159903.769057919702	254
0	2784	161133.142022795084	255
0	2790	161469.209125111566	254
0	2799	161967.451405318686	255
0	2801	162007.237120895409	256
0	2803	162184.316465961502	255
0	2807	162265.848821571459	256
0	2809	162523.117129027523	257
0	2820	162926.121890726254	256
0	2824	163008.198705556236	257
0	2830	164050.441047683812	258
0	2832	164062.355459066794	257
0	2841	164597.445561359391	256
0	2849	164854.551394079349	257
0	2851	165140.705615062975	258
0	2858	165757.644995148048	257
0	2862	165901.712068335786	258
0	2864	166021.325892824117	259
0	2870	166211.15183714287	258
0	2879	166719.743248380376	259
0	2881	166722.592773122587	260
0	2887	166944.566284990923	261
0	2889	166953.506239779644	262
0	2891	167225.726088984136	263
0	2893	167365.633622067735	262
0	2897	167519.699456969403	263
0	2899	167681.011125584551	264
0	2901	167714.763065124116	265
0	2908	167966.25222731258	266
0	2910	167975.11313917816	267
0	2916	168174.649789606908	268
0	2923	168933.474129508004	267
0	2927	169026.514284591968	268
0	2933	169575.331968250439	267
0	2942	170275.496066551529	268
0	2948	170585.353361256536	269
0	2950	170810.218935641215	268
0	2959	171013.151858960024	269
0	2965	171826.484844158159	268
0	2969	172070.377472745941	267
0	2973	172083.506861173385	268
0	2980	172458.570868508936	269
0	2982	172637.378391022549	268
0	2995	173725.163429151044	267
0	2999	173746.831489810344	268
0	3001	173989.458642038272	267
0	3009	174143.000160782317	268
0	3011	174747.901824811624	269
0	3018	175163.872727160431	270
0	3020	175232.393339196907	269
0	3024	175310.181359189517	270
0	3026	175514.297351161705	269
0	3034	175873.457717440622	270
0	3041	176154.936109758171	271
0	3043	176419.129297886277	272
0	3045	176593.02838662106	273
0	3051	177019.278371705989	274
0	3053	177053.580785540077	275
0	3055	177078.422620589601	274
0	3064	177276.079641310474	275
0	3066	177554.940586398691	276
0	3072	177646.396300303506	275
0	3076	177906.405714667369	276
0	3083	178670.021319131862	277
0	3085	178721.590852494588	278
0	3087	178908.152877811936	279
0	3093	179163.619824531245	278
0	3102	180327.078004277437	279
0	3108	180498.79719461741	280
0	3110	180658.991285632121	279
0	3114	180780.017959012913	280
0	3116	180826.414271587963	281
0	3123	181678.579628350901	280
0	3127	181750.870017920753	281
0	3133	182332.031357805001	280
0	3146	182993.23366449012	281
0	3148	183062.388071903626	282
0	3155	183199.372013385965	283
0	3161	183896.51860575633	282
0	3170	184293.603385834173	283
0	3176	184568.560244100856	282
0	3180	184605.995237292277	283
0	3182	184818.864240097284	284
0	3184	184916.735941984036	285
0	3186	185669.589131469595	284
0	3190	185775.197465547127	285
0	3197	185838.063472279914	286
0	3199	185985.273782808661	287
0	3201	186194.178034482613	288
0	3207	186547.783780869997	289
0	3214	186709.182331250243	290
0	3216	186746.066806870269	289
0	3220	186811.501438920449	290
0	3222	186826.053206875628	291
0	3224	187031.050207869076	292
0	3226	187053.304021382423	293
0	3228	187315.746441079611	294
0	3230	187338.434881012285	295
0	3236	187570.175811119078	296
0	3238	187643.538548714179	297
0	3245	188128.324372587232	298
0	3247	188203.09755562348	299
0	3249	188251.096193860041	298
0	3253	188605.044242104196	299
0	3259	188876.0413168382	300
0	3266	189006.738292420008	301
0	3268	189007.855860871121	302
0	3270	189169.75267333174	303
0	3272	189497.198127085975	304
0	3274	189520.995471509861	303
0	3278	189726.195370657813	304
0	3280	189897.270768620555	305
0	3282	189899.143896431207	306
0	3297	190695.668273116218	305
0	3301	191299.055996628334	306
0	3303	191357.79621514933	305
0	3312	191709.644807615225	306
0	3314	191886.320839742886	305
0	3318	192046.093757500842	306
0	3325	192279.881619146822	307
0	3331	192571.64269439386	306
0	3335	192640.804086145	307
0	3341	192900.940891657686	308
0	3343	193066.091360610401	309
0	3354	194014.378663149916	310
0	3356	194094.182741115557	309
0	3360	194217.870564422003	310
0	3367	194541.295416339254	311
0	3369	194577.949047450983	312
0	3375	194963.178743717057	313
0	3382	195343.497501622239	314
0	3384	195730.998067012594	315
0	3386	195731.69366325693	314
0	3390	195916.559185015243	315
0	3392	195930.343152213318	316
0	3403	196543.743388834165	315
0	3416	197822.568981642591	314
0	3424	198534.391795220831	315
0	3431	199233.366542192864	314
0	3444	199880.485247315106	315
0	3446	199994.882210212545	316
0	3448	200142.020565736819	317
0	3450	200172.844051616766	318
0	3452	200230.371972573089	319
0	3463	200752.127845584335	320
0	3469	200805.275323547598	321
0	3471	200851.350019792783	320
0	3475	200913.979124803692	321
0	3486	201651.469061178675	322
0	3488	201843.024648162293	321
0	3492	201855.908630701662	322
0	3494	201997.466854018334	323
0	3496	202038.209253679493	324
0	3498	202251.966143804359	323
0	3502	202353.439220992164	324
0	3509	203341.126535231936	323
0	3513	203345.67592888415	324
0	3515	203365.093233194647	325
0	3526	204353.743906475465	326
0	3528	204537.522165048452	327
0	3530	204802.463087732661	326
0	3538	205084.135058471409	327
0	3540	205141.714975278601	328
0	3542	205590.145756783653	327
0	3546	205663.047579900465	328
0	3553	205738.490794761746	329
0	3555	206451.634701366193	330
0	3557	206454.864400806439	331
0	3559	206491.699053452555	332
0	3561	206525.743078592888	333
0	3567	206773.678982417084	334
0	3569	206816.451349812318	333
0	3578	207086.907750149209	334
0	3580	207153.563929404015	335
0	3586	207607.165092411209	334
0	3604	208663.860632647917	335
0	3610	208899.103806149558	336
0	3612	209138.242105501462	335
0	3616	209154.729130585602	336
0	3627	210385.618271552667	337
0	3629	210400.183135590481	338
0	3631	210445.106643639675	339
0	3633	210683.095371938376	340
0	3640	210789.387846062649	339
0	3644	210797.009232765964	340
0	3646	210980.793760102783	341
0	3648	211002.636508165734	342
0	3654	211368.166343788374	341
0	3658	211403.267480345946	342
0	3665	212102.819680623517	343
0	3667	212104.560439693499	342
0	3675	212469.801948328035	343
0	3677	212477.800663054787	344
0	3679	212681.276851599724	345
0	3681	212850.335743165997	346
0	3683	212893.772337692547	345
0	3692	213193.518678406154	346
0	3694	213815.692052674492	347
0	3705	214086.486832494605	346
0	3713	214698.882155615642	347
0	3715	214793.165912884045	346
0	3719	214835.725006897486	347
0	3726	215192.252952153552	346
0	3730	215480.720567816685	347
0	3732	215599.558977675984	348
0	3734	215738.950065882753	349
0	3740	216015.990914809275	348
0	3744	216189.493290384986	349
0	3755	216670.657920621177	350
0	3757	217006.245147224809	351
0	3759	217038.316091921514	352
0	3761	217064.662200095821	351
0	3770	217475.628147005954	352
0	3776	218263.238130951989	351
0	3785	218626.785299671939	352
0	3787	218651.987474332321	351
0	3791	218934.021420883704	350
0	3795	219175.760324815977	349
0	3803	219425.731687510371	350
0	3805	219612.184127735817	351
0	3812	220186.040595578719	350
0	3820	220756.059151463537	351
0	3822	220832.17077445562	352
0	3824	220951.784416618515	351
0	3828	220990.158278190759	352
0	3835	221219.321389230658	351
0	3839	221669.159716653418	352
0	3845	222128.10623957136	353
0	3852	222489.375019214918	354
0	3854	222519.600633626913	355
0	3860	222672.920070136656	354
0	3864	222797.027815515162	355
0	3866	222887.118996460257	356
0	3868	222890.261039130726	357
0	3870	222928.196449757695	358
0	3872	222937.290453605965	359
0	3879	223048.148420014995	360
0	3881	223307.727285606061	361
0	3887	223308.308142120709	360
0	3891	223332.15540170331	361
0	3893	223498.196681641705	362
0	3895	223561.87373584557	363
0	3897	223582.279933062403	364
0	3904	223877.573170401825	365
0	3910	224656.038949782844	366
0	3912	224781.345845865776	365
0	3916	225242.197034465839	364
0	3925	225475.29814368927	365
0	3927	225679.550666768989	366
0	3929	225879.988158887381	367
0	3931	225960.551913524737	366
0	3939	226150.446213408665	367
0	3946	226176.730729191876	368
0	3948	226634.989067273905	367
0	3952	226677.270886993496	368
0	3958	227434.169294493964	367
0	3967	227620.543454670479	368
0	3969	227656.72544321441	369
0	3971	227715.86097005265	368
0	3975	227836.191322703354	369
0	3981	228594.636488020143	370
0	3988	229017.174870054943	371
0	3990	229210.248612644842	370
0	4007	229917.95174376925	371
0	4009	230288.105658352523	372
0	4011	230458.10800786438	373
0	4013	230543.615337568095	372
0	4017	230563.610867067967	373
0	4024	230851.937992897827	374
0	4030	231098.581220955378	375
0	4032	231309.088379549554	374
0	4036	231510.740342764245	375
0	4043	231627.674392436906	376
0	4054	232289.326822045019	375
0	4058	232315.114199098304	376
0	4060	232332.371590947881	377
0	4066	232649.358228739279	378
0	4068	232864.958899165264	377
0	4072	233110.517807188204	376
0	4076	233143.897164026642	377
0	4078	233214.716611933212	378
0	4085	233526.170273145948	379
0	4087	233556.723981120284	380
0	4093	233974.149728882431	381
0	4095	234227.461413773468	380
0	4104	235329.074814553592	381
0	4110	235472.376776349151	382
0	4112	235503.714435542694	381
0	4121	236056.653182494307	382
0	4123	236176.295734005741	381
0	4127	236249.837132364257	382
0	4133	236443.223277715348	383
0	4140	237436.305353964667	384
0	4142	237756.674690837733	383
0	4150	238044.052616650931	382
0	4159	238191.879988251341	383
0	4161	238294.336054487834	384
0	4172	238897.414786289207	383
0	4180	239677.425923735141	384
0	4182	239840.608333228172	385
0	4189	240052.304105431946	386
0	4191	240064.311229618959	385
0	4195	240357.68015697413	386
0	4201	240894.169828178531	387
0	4208	241572.487723524444	386
0	4212	241723.468303765267	387
0	4218	242354.995148065262	386
0	4222	242536.019674752367	387
0	4224	242688.713918882184	386
0	4233	243101.089482411334	387
0	4235	243202.210298390298	388
0	4241	243480.876233755803	389
0	4243	243915.801349687152	388
0	4247	244014.741604931957	389
0	4254	244394.910212005251	388
0	4258	244508.922247031099	389
0	4260	244746.343255054939	390
0	4262	244963.59562032948	391
0	4264	245041.247563188798	392
0	4266	245058.380605685287	391
0	4274	245286.456263304413	392
0	4276	245562.477400870365	393
0	4278	245594.396103950911	392
0	4287	246231.863766941087	393
0	4289	246432.276726015557	394
0	4291	246464.848628150993	393
0	4295	246561.103688053531	394
0	4297	246590.718211623201	395
0	4312	247204.13358921377	396
0	4314	247752.654890136259	397
0	4316	247883.223699170442	398
0	4318	247918.559672827595	397
0	4322	247985.37373608486	398
0	4324	247998.782329313991	399
0	4331	248197.790089375544	400
0	4333	248267.076734262281	399
0	4341	248954.399779644146	400
0	4343	249056.316438080718	401
0	4350	249176.62678746666	402
0	4352	249221.635985050019	403
0	4354	249325.310065853172	402
0	4358	249754.283035929232	403
0	4364	250094.173886673144	404
0	4366	250095.138923674157	405
0	4368	250274.147652817446	406
0	4375	250970.582838873142	405
0	4388	251239.30588512645	406
0	4390	251253.999105252738	407
0	4392	251256.697789254218	408
0	4398	251571.15626967954	407